<LesHouchesEvents version="3.0">
<header>
<!--
#*********************************************************************
#                                                                    *
#                        MadGraph5_aMC@NLO                           *
#                                                                    *
#                           Going Beyond                             *
#                                                                    *
#                   http://madgraph.hep.uiuc.edu                     *
#                   http://madgraph.phys.ucl.ac.be                   *
#                   http://amcatnlo.cern.ch                          *
#                                                                    *
#                     The MadGraph5_aMC@NLO team                     *
#                                                                    *
#....................................................................*
#                                                                    *
# This file contains all the information necessary to reproduce      *
# the events generated:                                              *
#                                                                    *
# 1. software version                                                *
# 2. proc_card          : code generation info including model       *
# 3. param_card         : model primary parameters in the LH format  *
# 4. run_card           : running parameters (collider and cuts)     *
# 5. pythia_card        : present only if pythia has been run        *
# 6. pgs_card           : present only if pgs has been run           *
# 7. delphes_cards      : present only if delphes has been run       *
#                                                                    *
#                                                                    *
#*********************************************************************
-->
<MGVersion>
3.4.2
</MGVersion>
<MG5ProcCard>
<![CDATA[
#************************************************************
#*                     MadGraph5_aMC@NLO                    *
#*                                                          *
#*                *                       *                 *
#*                  *        * *        *                   *
#*                    * * * * 5 * * * *                     *
#*                  *        * *        *                   *
#*                *                       *                 *
#*                                                          *
#*                                                          *
#*         VERSION 3.4.2                 2023-01-20         *
#*                                                          *
#*    The MadGraph5_aMC@NLO Development Team - Find us at   *
#*    https://server06.fynu.ucl.ac.be/projects/madgraph     *
#*                                                          *
#************************************************************
#*                                                          *
#*               Command File for MadGraph5_aMC@NLO         *
#*                                                          *
#*     run as ./bin/mg5_aMC  filename                       *
#*                                                          *
#************************************************************
set group_subprocesses Auto
set ignore_six_quark_processes False
set low_mem_multicore_nlo_generation False
set complex_mass_scheme False
set include_lepton_initiated_processes False
set gauge unitary
set loop_optimized_output True
set loop_color_flows False
set max_npoint_for_channel 0
set default_unset_couplings 99
set max_t_for_channel 99
set zerowidth_tchannel True
set nlo_mixed_expansion True
import model sm
define p = g u c d s u~ c~ d~ s~
define j = g u c d s u~ c~ d~ s~
define l+ = e+ mu+
define l- = e- mu-
define vl = ve vm vt
define vl~ = ve~ vm~ vt~
generate e- e+ > mu- mu+
output Output
]]>
</MG5ProcCard>
<MGProcCard>
#*********************************************************************
#                        MadGraph/MadEvent                           *
#                   http://madgraph.hep.uiuc.edu                     *
#                                                                    *
#                          proc_card.dat                             *
#*********************************************************************
#                                                                    *
#            This Files is generated by MADGRAPH 5                   *
#                                                                    *
# WARNING: This Files is generated for MADEVENT (compatibility issue)*
#          This files is NOT a valid MG4 proc_card.dat               *
#          Running this in MG4 will NEVER reproduce the result of MG5*
#                                                                    *
#*********************************************************************
#*********************************************************************
# Process(es) requested : mg2 input                                  *
#*********************************************************************
# Begin PROCESS # This is TAG. Do not modify this line
e- e+ > mu- mu+           #Process
# Be carefull the coupling are here in MG5 convention
          
end_coup           # End the couplings input

done               # this tells MG there are no more procs
# End PROCESS  # This is TAG. Do not modify this line
#*********************************************************************
# Model information                                                  *
#*********************************************************************
# Begin MODEL  # This is TAG. Do not modify this line
sm
# End   MODEL  # This is TAG. Do not modify this line
#*********************************************************************
# Start multiparticle definitions                                    *
#*********************************************************************
# Begin MULTIPARTICLES # This is TAG. Do not modify this line

# End  MULTIPARTICLES # This is TAG. Do not modify this line
</MGProcCard>
<MGRunCard>
<![CDATA[
#*********************************************************************
#                       MadGraph5_aMC@NLO                            *
#                                                                    *
#                     run_card.dat MadEvent                          *
#                                                                    *
#  This file is used to set the parameters of the run.               *
#                                                                    *
#  Some notation/conventions:                                        *
#                                                                    *
#   Lines starting with a '# ' are info or comments                  *
#                                                                    *
#   mind the format:   value    = variable     ! comment             *
#                                                                    *
#   To display more options, you can type the command:               *
#      update to_full                                                *
#*********************************************************************
#                                                                    
#*********************************************************************
# Tag name for the run (one word)                                    *
#*********************************************************************
  tag_1	= run_tag ! name of the run 
#*********************************************************************
# Number of events and rnd seed                                      *
# Warning: Do not generate more than 1M events in a single run       *
#*********************************************************************
  100	= nevents ! Number of unweighted events requested 
 4714 = iseed ! rnd seed (0=assigned automatically=default))
#*********************************************************************
# Collider type and energy                                           *
# lpp: 0=No PDF, 1=proton, -1=antiproton, 2=elastic photon of proton,*
#             +/-3=PDF of electron/positron beam                     *
#             +/-4=PDF of muon/antimuon beam                         *
#*********************************************************************
  3	= lpp1 ! beam 1 type 
  -3	= lpp2 ! beam 2 type
  175.0	= ebeam1 ! beam 1 total energy in GeV
  175.0	= ebeam2 ! beam 2 total energy in GeV
#*********************************************************************
# Beam polarization from -100 (left-handed) to 100 (right-handed)    *
#*********************************************************************
  0.0	= polbeam1 ! beam polarization for beam 1
  0.0	= polbeam2 ! beam polarization for beam 2


#*********************************************************************
# PDF CHOICE: this automatically fixes alpha_s and its evol.         *
# pdlabel: lhapdf=LHAPDF (installation needed) [1412.7420]           *
#          iww=Improved Weizsaecker-Williams Approx.[hep-ph/9310350] *
#          eva=Effective W/Z/A Approx.       [21yy.zzzzz]            *
#          none=No PDF, same as lhapdf with lppx=0                   *
#*********************************************************************
  isronlyll	= pdlabel ! PDF set 
  230000	= lhaid ! if pdlabel=lhapdf, this is the lhapdf number
# To see heavy ion options: type "update ion_pdf"
#*********************************************************************
# Renormalization and factorization scales                           *
#*********************************************************************
  False	= fixed_ren_scale ! if .true. use fixed ren scale
  False	= fixed_fac_scale ! if .true. use fixed fac scale
  91.188	= scale ! fixed ren scale
  91.188	= dsqrt_q2fact1 ! fixed fact scale for pdf1
  91.188	= dsqrt_q2fact2 ! fixed fact scale for pdf2
  -1	= dynamical_scale_choice ! Choose one of the preselected dynamical choices
  1.0	= scalefact ! scale factor for event-by-event scales

 
#*********************************************************************
# Type and output format
#*********************************************************************
  False	= gridpack !True = setting up the grid pack
  -1.0	= time_of_flight ! threshold (in mm) below which the invariant livetime is not written (-1 means not written)
  average	= event_norm ! average/sum. Normalization of the weight in the LHEF
# To see MLM/CKKW  merging options: type "update MLM" or "update CKKW"

#*********************************************************************
#
#*********************************************************************
# Phase-Space Optimization strategy (basic options)
#*********************************************************************
  0	= nhel ! using helicities importance sampling or not.
                             ! 0: sum over helicity, 1: importance sampling
  2	= sde_strategy ! default integration strategy (hep-ph/2021.00773)
                             ! 1 is old strategy (using amp square)
			     ! 2 is new strategy (using only the denominator)
# To see advanced option for Phase-Space optimization: type "update psoptim"			     
#*********************************************************************
# Generation bias, check the wiki page below for more information:   *
#  'cp3.irmp.ucl.ac.be/projects/madgraph/wiki/LOEventGenerationBias' *
#*********************************************************************
  None	= bias_module ! Bias type of bias, [None, ptj_bias, -custom_folder-]
  {}	= bias_parameters ! Specifies the parameters of the module.
#
#*******************************                                                 
# Parton level cuts definition *
#*******************************
  0.0	= dsqrt_shat ! minimal shat for full process
#                                                                    
#
#*********************************************************************
# BW cutoff (M+/-bwcutoff*Gamma) ! Define on/off-shell for "$" and decay  
#*********************************************************************
  15.0	= bwcutoff ! (M+/-bwcutoff*Gamma)
#*********************************************************************
# Standard Cuts                                                      *
#*********************************************************************
# Minimum and maximum pt's (for max, -1 means no cut)                *
#*********************************************************************
  10.0	= ptl ! minimum pt for the charged leptons 
  -1.0	= ptlmax ! maximum pt for the charged leptons
  {'13': 20.0}	= pt_min_pdg ! pt cut for other particles (use pdg code). Applied on particle and anti-particle
  {'13': 175.0}	= pt_max_pdg ! pt cut for other particles (syntax e.g. {6: 100, 25: 50}) 
#*********************************************************************
# Minimum and maximum E's (in the center of mass frame)              *
#*********************************************************************
  0.0	= ej ! minimum E for the jets
  0.0	= eb ! minimum E for the b
  0.0	= ea ! minimum E for the photons
  0.0	= el ! minimum E for the charged leptons
  -1.0	= ejmax ! maximum E for the jets
  -1.0	= ebmax ! maximum E for the b
  -1.0	= eamax ! maximum E for the photons
  -1.0	= elmax ! maximum E for the charged leptons
  {}	= e_min_pdg ! E cut for other particles (use pdg code). Applied on particle and anti-particle
  {}	= e_max_pdg ! E cut for other particles (syntax e.g. {6: 100, 25: 50})

#*********************************************************************
# Maximum and minimum absolute rapidity (for max, -1 means no cut)   *
#*********************************************************************
  2.5	= etal ! max rap for the charged leptons 
  0.0	= etalmin ! main rap for the charged leptons
  {}	= eta_min_pdg ! rap cut for other particles (use pdg code). Applied on particle and anti-particle
  {}	= eta_max_pdg ! rap cut for other particles (syntax e.g. {6: 2.5, 23: 5})
#*********************************************************************
# Minimum and maximum DeltaR distance                                *
#*********************************************************************
  0.4	= drll ! min distance between leptons 
  -1.0	= drllmax ! max distance between leptons
#*********************************************************************
# Minimum and maximum invariant mass for pairs                       *
#*********************************************************************
  0.0	= mmll ! min invariant mass of l+l- (same flavour) lepton pair
  -1.0	= mmllmax ! max invariant mass of l+l- (same flavour) lepton pair
  {}	= mxx_min_pdg ! min invariant mass of a pair of particles X/X~ (e.g. {6:250})
  {'default': False}	= mxx_only_part_antipart ! if True the invariant mass is applied only 
                       ! to pairs of particle/antiparticle and not to pairs of the same pdg codes.  
 #*********************************************************************
 # Minimum and maximum invariant mass for all letpons                 *
 #*********************************************************************
  0.0	= mmnl ! min invariant mass for all letpons (l+- and vl) 
  -1.0	= mmnlmax ! max invariant mass for all letpons (l+- and vl) 
 #*********************************************************************
 # Minimum and maximum pt for 4-momenta sum of leptons / neutrino     *
 #  for pair of lepton includes only same flavor, opposite charge
 #*********************************************************************
  0.0	= ptllmin ! Minimum pt for 4-momenta sum of leptons(l and vl)
  -1.0	= ptllmax ! Maximum pt for 4-momenta sum of leptons(l and vl)
#*********************************************************************
# Inclusive cuts                                                     *
#*********************************************************************
  0.0	= xptl ! minimum pt for at least one charged lepton 
 #*********************************************************************
 # Control the pt's of leptons sorted by pt                           *
 #*********************************************************************
  0.0	= ptl1min ! minimum pt for the leading lepton in pt
  0.0	= ptl2min ! minimum pt for the second lepton in pt
  -1.0	= ptl1max ! maximum pt for the leading lepton in pt 
  -1.0	= ptl2max ! maximum pt for the second lepton in pt
#*********************************************************************
# maximal pdg code for quark to be considered as a light jet         *
# (otherwise b cuts are applied)                                     *
#*********************************************************************
  4	= maxjetflavor ! Maximum jet pdg code
#*********************************************************************
#
#*********************************************************************
# Store info for systematics studies                                 *
# WARNING: Do not use for interference type of computation           *
#*********************************************************************
  False	= use_syst ! Enable systematics studies
#
  systematics	= systematics_program ! none, systematics [python], SysCalc [depreceted, C++]
  ['--mur=0.5,1,2', '--muf=0.5,1,2', '--pdf=errorset']	= systematics_arguments ! see: https://cp3.irmp.ucl.ac.be/projects/madgraph/wiki/Systematics#Systematicspythonmodule
]]>
</MGRunCard>
<slha>
######################################################################
## PARAM_CARD AUTOMATICALY GENERATED BY MG5                       ####
######################################################################
###################################
## INFORMATION FOR MASS
###################################
BLOCK MASS # 
      5 4.700000e+00 # mb
      6 1.730000e+02 # mt
      15 1.777000e+00 # mta
      23 9.118760e+01 # mz
      25 1.250000e+02 # mh
      1 0.000000e+00 # d : 0.0
      2 0.000000e+00 # u : 0.0
      3 0.000000e+00 # s : 0.0
      4 0.000000e+00 # c : 0.0
      11 0.000000e+00 # e- : 0.0
      12 0.000000e+00 # ve : 0.0
      13 0.000000e+00 # mu- : 0.0
      14 0.000000e+00 # vm : 0.0
      16 0.000000e+00 # vt : 0.0
      21 0.000000e+00 # g : 0.0
      22 0.000000e+00 # a : 0.0
      24 8.041900e+01 # w+ : cmath.sqrt(mz__exp__2/2. + cmath.sqrt(mz__exp__4/4. - (aew*cmath.pi*mz__exp__2)/(gf*sqrt__2)))
###################################
## INFORMATION FOR SMINPUTS
###################################
BLOCK SMINPUTS # 
      1 1.325070e+02 # aewm1
      2 1.166390e-05 # gf
      3 1.180000e-01 # as (note that parameter not used if you use a pdf set)
###################################
## INFORMATION FOR YUKAWA
###################################
BLOCK YUKAWA # 
      5 4.700000e+00 # ymb
      6 1.730000e+02 # ymt
      15 1.777000e+00 # ymtau
###################################
## INFORMATION FOR DECAY
###################################
DECAY 6 1.491500e+00 # wt
DECAY 23 2.495200e+00 # wz
DECAY 24 2.047600e+00 # ww
DECAY 25 6.382339e-03 # wh
DECAY 1 0.000000e+00 # d : 0.0
DECAY 2 0.000000e+00 # u : 0.0
DECAY 3 0.000000e+00 # s : 0.0
DECAY 4 0.000000e+00 # c : 0.0
DECAY 5 0.000000e+00 # b : 0.0
DECAY 11 0.000000e+00 # e- : 0.0
DECAY 12 0.000000e+00 # ve : 0.0
DECAY 13 0.000000e+00 # mu- : 0.0
DECAY 14 0.000000e+00 # vm : 0.0
DECAY 15 0.000000e+00 # ta- : 0.0
DECAY 16 0.000000e+00 # vt : 0.0
DECAY 21 0.000000e+00 # g : 0.0
DECAY 22 0.000000e+00 # a : 0.0
</slha>
<MGGenerationInfo>
#  Number of Events        :       100
#  Integrated weight (pb)  :       1.7491400000000001
</MGGenerationInfo>
</header>
<init>
11 -11 1.750000e+02 1.750000e+02 0 0 0 0 -4 1
1.749140e+00 3.256473e-02 1.749140e+00 1
<generator name='MadGraph5_aMC@NLO' version='3.4.2'>please cite 1405.0301 </generator>
</init>
<event>
 4      1 +1.7491400e+00 1.75801800e+02 7.54677100e-03 1.07391500e-01
       11 -1    0    0    0    0 +0.0000000000e+00 +0.0000000000e+00 +4.4148683635e+01 4.4148683635e+01 0.0000000000e+00 0.0000e+00 1.0000e+00
      -11 -1    0    0    0    0 -0.0000000000e+00 -0.0000000000e+00 -1.7501239712e+02 1.7501239712e+02 0.0000000000e+00 0.0000e+00 -1.0000e+00
       13  1    1    2    0    0 +4.8761876712e+01 +7.2711495274e+01 -5.5624948705e+01 1.0372471781e+02 0.0000000000e+00 0.0000e+00 1.0000e+00
      -13  1    1    2    0    0 -4.8761876712e+01 -7.2711495274e+01 -7.5238764781e+01 1.1543636295e+02 0.0000000000e+00 0.0000e+00 -1.0000e+00
</event>
<event>
 4      1 +1.7491400e+00 2.96346300e+02 7.54677100e-03 1.00246600e-01
       11 -1    0    0    0    0 +0.0000000000e+00 +0.0000000000e+00 +1.2834289495e+02 1.2834289495e+02 0.0000000000e+00 0.0000e+00 1.0000e+00
      -11 -1    0    0    0    0 -0.0000000000e+00 -0.0000000000e+00 -1.7106743337e+02 1.7106743337e+02 0.0000000000e+00 0.0000e+00 -1.0000e+00
       13  1    1    2    0    0 -1.2164107775e+01 -6.4057071299e+01 +1.1306986390e+02 1.3052228938e+02 0.0000000000e+00 0.0000e+00 1.0000e+00
      -13  1    1    2    0    0 +1.2164107775e+01 +6.4057071299e+01 -1.5579440233e+02 1.6888803894e+02 0.0000000000e+00 0.0000e+00 -1.0000e+00
</event>
<event>
 5      1 +1.7491400e+00 9.21273800e+01 7.54677100e-03 1.17817900e-01
       11 -1    0    0    0    0 +0.0000000000e+00 +0.0000000000e+00 +1.8877866519e+01 1.8877866519e+01 0.0000000000e+00 0.0000e+00 1.0000e+00
      -11 -1    0    0    0    0 -0.0000000000e+00 -0.0000000000e+00 -1.1239954629e+02 1.1239954629e+02 0.0000000000e+00 0.0000e+00 -1.0000e+00
       23  2    1    2    0    0 +0.0000000000e+00 +0.0000000000e+00 -9.3521679768e+01 1.3127741281e+02 9.2127382066e+01 0.0000e+00 0.0000e+00
       13  1    3    3    0    0 -7.7385920298e+00 +4.3686857192e+01 -2.9109999600e+01 5.3064294725e+01 0.0000000000e+00 0.0000e+00 -1.0000e+00
      -13  1    3    3    0    0 +7.7385920298e+00 -4.3686857192e+01 -6.4411680168e+01 7.8213118081e+01 0.0000000000e+00 0.0000e+00 1.0000e+00
</event>
<event>
 4      1 +1.7491400e+00 2.68858600e+02 7.54677100e-03 1.01504200e-01
       11 -1    0    0    0    0 +0.0000000000e+00 +0.0000000000e+00 +1.0348026563e+02 1.0348026563e+02 0.0000000000e+00 0.0000e+00 1.0000e+00
      -11 -1    0    0    0    0 -0.0000000000e+00 -0.0000000000e+00 -1.7463465374e+02 1.7463465374e+02 0.0000000000e+00 0.0000e+00 -1.0000e+00
       13  1    1    2    0    0 +1.3168458335e+02 +2.6970595898e+01 -3.3786162308e+01 1.3859923267e+02 0.0000000000e+00 0.0000e+00 1.0000e+00
      -13  1    1    2    0    0 -1.3168458335e+02 -2.6970595898e+01 -3.7368225801e+01 1.3951568669e+02 0.0000000000e+00 0.0000e+00 -1.0000e+00
</event>
<event>
 4      1 +1.7491400e+00 3.33836500e+02 7.54677100e-03 9.87502900e-02
       11 -1    0    0    0    0 +0.0000000000e+00 +0.0000000000e+00 +1.7499768619e+02 1.7499768619e+02 0.0000000000e+00 0.0000e+00 -1.0000e+00
      -11 -1    0    0    0    0 -0.0000000000e+00 -0.0000000000e+00 -1.5921184840e+02 1.5921184840e+02 0.0000000000e+00 0.0000e+00 1.0000e+00
       13  1    1    2    0    0 -8.0296733941e+01 +1.3233394670e+02 +7.0427634386e+01 1.7005849175e+02 0.0000000000e+00 0.0000e+00 -1.0000e+00
      -13  1    1    2    0    0 +8.0296733941e+01 -1.3233394670e+02 -5.4641796594e+01 1.6415104284e+02 0.0000000000e+00 0.0000e+00 1.0000e+00
</event>
<event>
 4      1 +1.7491400e+00 9.16492500e+01 7.54677100e-03 1.17910300e-01
       11 -1    0    0    0    0 +0.0000000000e+00 +0.0000000000e+00 +1.1998345889e+01 1.1998345889e+01 0.0000000000e+00 0.0000e+00 1.0000e+00
      -11 -1    0    0    0    0 -0.0000000000e+00 -0.0000000000e+00 -1.7501546340e+02 1.7501546340e+02 0.0000000000e+00 0.0000e+00 -1.0000e+00
       13  1    1    2    0    0 +1.0366245532e+01 +4.4380633849e+01 -7.1765899368e+01 8.5014375369e+01 0.0000000000e+00 0.0000e+00 1.0000e+00
      -13  1    1    2    0    0 -1.0366245532e+01 -4.4380633849e+01 -9.1251218144e+01 1.0199943392e+02 0.0000000000e+00 0.0000e+00 -1.0000e+00
</event>
<event>
 4      1 +1.7491400e+00 3.05952000e+02 7.54677100e-03 9.98414200e-02
       11 -1    0    0    0    0 +0.0000000000e+00 +0.0000000000e+00 +1.3372249178e+02 1.3372249178e+02 0.0000000000e+00 0.0000e+00 -1.0000e+00
      -11 -1    0    0    0    0 -0.0000000000e+00 -0.0000000000e+00 -1.7500165440e+02 1.7500165440e+02 0.0000000000e+00 0.0000e+00 1.0000e+00
       13  1    1    2    0    0 -1.3676828988e+02 +4.7913494362e+01 -7.0077266779e+01 1.6097233109e+02 0.0000000000e+00 0.0000e+00 -1.0000e+00
      -13  1    1    2    0    0 +1.3676828988e+02 -4.7913494362e+01 +2.8798104163e+01 1.4775181509e+02 0.0000000000e+00 0.0000e+00 1.0000e+00
</event>
<event>
 4      1 +1.7491400e+00 1.68589000e+02 7.54677100e-03 1.08010100e-01
       11 -1    0    0    0    0 +0.0000000000e+00 +0.0000000000e+00 +1.7499883513e+02 1.7499883513e+02 0.0000000000e+00 0.0000e+00 1.0000e+00
      -11 -1    0    0    0    0 -0.0000000000e+00 -0.0000000000e+00 -4.0603506603e+01 4.0603506603e+01 0.0000000000e+00 0.0000e+00 -1.0000e+00
       13  1    1    2    0    0 +6.2035934783e+01 -2.4305225234e+01 +1.3323414838e+02 1.4896489342e+02 0.0000000000e+00 0.0000e+00 1.0000e+00
      -13  1    1    2    0    0 -6.2035934783e+01 +2.4305225234e+01 +1.1611801498e+00 6.6637448311e+01 0.0000000000e+00 0.0000e+00 -1.0000e+00
</event>
<event>
 4      1 +1.7491400e+00 2.58541600e+02 7.54677100e-03 1.02018800e-01
       11 -1    0    0    0    0 +0.0000000000e+00 +0.0000000000e+00 +1.6851060578e+02 1.6851060578e+02 0.0000000000e+00 0.0000e+00 -1.0000e+00
      -11 -1    0    0    0    0 -0.0000000000e+00 -0.0000000000e+00 -9.9168486997e+01 9.9168486997e+01 0.0000000000e+00 0.0000e+00 1.0000e+00
       13  1    1    2    0    0 -1.0498750321e+02 +7.3412688664e+01 +5.2578087242e+01 1.3847835190e+02 0.0000000000e+00 0.0000e+00 1.0000e+00
      -13  1    1    2    0    0 +1.0498750321e+02 -7.3412688664e+01 +1.6764031538e+01 1.2920074087e+02 0.0000000000e+00 0.0000e+00 -1.0000e+00
</event>
<event>
 4      1 +1.7491400e+00 2.93688600e+02 7.54677100e-03 1.00361700e-01
       11 -1    0    0    0    0 +0.0000000000e+00 +0.0000000000e+00 +1.2372907285e+02 1.2372907285e+02 0.0000000000e+00 0.0000e+00 1.0000e+00
      -11 -1    0    0    0    0 -0.0000000000e+00 -0.0000000000e+00 -1.7427799861e+02 1.7427799861e+02 0.0000000000e+00 0.0000e+00 -1.0000e+00
       13  1    1    2    0    0 -7.8778493442e+01 +2.9131736783e+00 +1.0043716788e+02 1.2767992129e+02 0.0000000000e+00 0.0000e+00 1.0000e+00
      -13  1    1    2    0    0 +7.8778493442e+01 -2.9131736783e+00 -1.5098609364e+02 1.7032715016e+02 0.0000000000e+00 0.0000e+00 -1.0000e+00
</event>
<event>
 5      1 +1.7491400e+00 9.16161800e+01 7.54677100e-03 1.17916700e-01
       11 -1    0    0    0    0 +0.0000000000e+00 +0.0000000000e+00 +1.5660319750e+01 1.5660319750e+01 0.0000000000e+00 0.0000e+00 -1.0000e+00
      -11 -1    0    0    0    0 -0.0000000000e+00 -0.0000000000e+00 -1.3399351513e+02 1.3399351513e+02 0.0000000000e+00 0.0000e+00 1.0000e+00
       23  2    1    2    0    0 +0.0000000000e+00 +0.0000000000e+00 -1.1833319538e+02 1.4965383488e+02 9.1616183971e+01 0.0000e+00 0.0000e+00
       13  1    3    3    0    0 -3.1732624967e+01 -2.1707697054e+01 -1.8486618246e+01 4.2660739010e+01 0.0000000000e+00 0.0000e+00 -1.0000e+00
      -13  1    3    3    0    0 +3.1732624967e+01 +2.1707697054e+01 -9.9846577130e+01 1.0699309587e+02 0.0000000000e+00 0.0000e+00 1.0000e+00
</event>
<event>
 4      1 +1.7491400e+00 3.49979200e+02 7.54677100e-03 9.81696300e-02
       11 -1    0    0    0    0 +0.0000000000e+00 +0.0000000000e+00 +1.7497983932e+02 1.7497983932e+02 0.0000000000e+00 0.0000e+00 1.0000e+00
      -11 -1    0    0    0    0 -0.0000000000e+00 -0.0000000000e+00 -1.7499934329e+02 1.7499934329e+02 0.0000000000e+00 0.0000e+00 -1.0000e+00
       13  1    1    2    0    0 +2.8747044845e+01 -1.1030070895e+02 +1.3276343071e+02 1.7498219200e+02 0.0000000000e+00 0.0000e+00 1.0000e+00
      -13  1    1    2    0    0 -2.8747044845e+01 +1.1030070895e+02 -1.3278293468e+02 1.7499699061e+02 0.0000000000e+00 0.0000e+00 -1.0000e+00
</event>
<event>
 4      1 +1.7491400e+00 3.46538900e+02 7.54677100e-03 9.82905200e-02
       11 -1    0    0    0    0 +0.0000000000e+00 +0.0000000000e+00 +1.7155443136e+02 1.7155443136e+02 0.0000000000e+00 0.0000e+00 1.0000e+00
      -11 -1    0    0    0    0 -0.0000000000e+00 -0.0000000000e+00 -1.7500164561e+02 1.7500164561e+02 0.0000000000e+00 0.0000e+00 -1.0000e+00
       13  1    1    2    0    0 +1.0536309237e+02 -1.2520772039e+02 +5.5234924459e+01 1.7271146853e+02 0.0000000000e+00 0.0000e+00 1.0000e+00
      -13  1    1    2    0    0 -1.0536309237e+02 +1.2520772039e+02 -5.8682138710e+01 1.7384460844e+02 0.0000000000e+00 0.0000e+00 -1.0000e+00
</event>
<event>
 5      1 +1.7491400e+00 9.05492600e+01 7.54677100e-03 1.18125200e-01
       11 -1    0    0    0    0 +0.0000000000e+00 +0.0000000000e+00 +1.1715113141e+01 1.1715113141e+01 0.0000000000e+00 0.0000e+00 -1.0000e+00
      -11 -1    0    0    0    0 -0.0000000000e+00 -0.0000000000e+00 -1.7496990685e+02 1.7496990685e+02 0.0000000000e+00 0.0000e+00 1.0000e+00
       23  2    1    2    0    0 +0.0000000000e+00 +0.0000000000e+00 -1.6325479371e+02 1.8668502000e+02 9.0549262946e+01 0.0000e+00 0.0000e+00
       13  1    3    3    0    0 -2.7278411299e+00 +3.0826411694e+01 -1.4975960583e+02 1.5292366826e+02 0.0000000000e+00 0.0000e+00 1.0000e+00
      -13  1    3    3    0    0 +2.7278411299e+00 -3.0826411694e+01 -1.3495187885e+01 3.3761351738e+01 0.0000000000e+00 0.0000e+00 -1.0000e+00
</event>
<event>
 4      1 +1.7491400e+00 3.49854900e+02 7.54677100e-03 9.81739700e-02
       11 -1    0    0    0    0 +0.0000000000e+00 +0.0000000000e+00 +1.7499814581e+02 1.7499814581e+02 0.0000000000e+00 0.0000e+00 -1.0000e+00
      -11 -1    0    0    0    0 -0.0000000000e+00 -0.0000000000e+00 -1.7485679225e+02 1.7485679225e+02 0.0000000000e+00 0.0000e+00 1.0000e+00
       13  1    1    2    0    0 +9.7719952204e+01 +1.1873459794e+02 +8.3452459887e+01 1.7496115817e+02 0.0000000000e+00 0.0000e+00 -1.0000e+00
      -13  1    1    2    0    0 -9.7719952204e+01 -1.1873459794e+02 -8.3311106326e+01 1.7489377989e+02 0.0000000000e+00 0.0000e+00 1.0000e+00
</event>
<event>
 5      1 +1.7491400e+00 9.02724500e+01 7.54677100e-03 1.18179800e-01
       11 -1    0    0    0    0 +0.0000000000e+00 +0.0000000000e+00 +1.1638869720e+01 1.1638869720e+01 0.0000000000e+00 0.0000e+00 -1.0000e+00
      -11 -1    0    0    0    0 -0.0000000000e+00 -0.0000000000e+00 -1.7504095205e+02 1.7504095205e+02 0.0000000000e+00 0.0000e+00 1.0000e+00
       23  2    1    2    0    0 +0.0000000000e+00 +0.0000000000e+00 -1.6340208233e+02 1.8667982177e+02 9.0272450650e+01 0.0000e+00 0.0000e+00
       13  1    3    3    0    0 +1.8115684490e+01 +3.1181154892e+01 -1.3783525938e+02 1.4247456325e+02 0.0000000000e+00 0.0000e+00 1.0000e+00
      -13  1    3    3    0    0 -1.8115684490e+01 -3.1181154892e+01 -2.5566822946e+01 4.4205258516e+01 0.0000000000e+00 0.0000e+00 -1.0000e+00
</event>
<event>
 4      1 +1.7491400e+00 4.78975000e+01 7.54677100e-03 1.30722300e-01
       11 -1    0    0    0    0 +0.0000000000e+00 +0.0000000000e+00 +3.2776001620e+00 3.2776001620e+00 0.0000000000e+00 0.0000e+00 -1.0000e+00
      -11 -1    0    0    0    0 -0.0000000000e+00 -0.0000000000e+00 -1.7498861712e+02 1.7498861712e+02 0.0000000000e+00 0.0000e+00 1.0000e+00
       13  1    1    2    0    0 -1.5831113387e+01 +1.4366752305e+01 -1.2602969408e+02 1.2783001022e+02 0.0000000000e+00 0.0000e+00 1.0000e+00
      -13  1    1    2    0    0 +1.5831113387e+01 -1.4366752305e+01 -4.5681322871e+01 5.0436207055e+01 0.0000000000e+00 0.0000e+00 -1.0000e+00
</event>
<event>
 4      1 +1.7491400e+00 3.17024100e+02 7.54677100e-03 9.93937600e-02
       11 -1    0    0    0    0 +0.0000000000e+00 +0.0000000000e+00 +1.7469604394e+02 1.7469604394e+02 0.0000000000e+00 0.0000e+00 -1.0000e+00
      -11 -1    0    0    0    0 -0.0000000000e+00 -0.0000000000e+00 -1.4382731967e+02 1.4382731967e+02 0.0000000000e+00 0.0000e+00 1.0000e+00
       13  1    1    2    0    0 -3.1711086850e+01 -6.0007855935e+01 +1.5935820674e+02 1.7320962404e+02 0.0000000000e+00 0.0000e+00 -1.0000e+00
      -13  1    1    2    0    0 +3.1711086850e+01 +6.0007855935e+01 -1.2848948247e+02 1.4531373957e+02 0.0000000000e+00 0.0000e+00 1.0000e+00
</event>
<event>
 4      1 +1.7491400e+00 3.50000000e+02 7.54677100e-03 9.81689000e-02
       11 -1    0    0    0    0 +0.0000000000e+00 +0.0000000000e+00 +1.7499756186e+02 1.7499756186e+02 0.0000000000e+00 0.0000e+00 -1.0000e+00
      -11 -1    0    0    0    0 -0.0000000000e+00 -0.0000000000e+00 -1.7500243814e+02 1.7500243814e+02 0.0000000000e+00 0.0000e+00 1.0000e+00
       13  1    1    2    0    0 +5.0295291876e+00 -1.7337611894e+02 +2.3244609281e+01 1.7499967612e+02 0.0000000000e+00 0.0000e+00 -1.0000e+00
      -13  1    1    2    0    0 -5.0295291876e+00 +1.7337611894e+02 -2.3249485563e+01 1.7500032389e+02 0.0000000000e+00 0.0000e+00 1.0000e+00
</event>
<event>
 4      1 +1.7491400e+00 3.22960400e+02 7.54677100e-03 9.91617600e-02
       11 -1    0    0    0    0 +0.0000000000e+00 +0.0000000000e+00 +1.7499918070e+02 1.7499918070e+02 0.0000000000e+00 0.0000e+00 1.0000e+00
      -11 -1    0    0    0    0 -0.0000000000e+00 -0.0000000000e+00 -1.4900555030e+02 1.4900555030e+02 0.0000000000e+00 0.0000e+00 -1.0000e+00
       13  1    1    2    0    0 -3.3773925493e+01 +7.4114319933e+01 +1.5288314041e+02 1.7322489742e+02 0.0000000000e+00 0.0000e+00 1.0000e+00
      -13  1    1    2    0    0 +3.3773925493e+01 -7.4114319933e+01 -1.2688951002e+02 1.5077983358e+02 0.0000000000e+00 0.0000e+00 -1.0000e+00
</event>
<event>
 4      1 +1.7491400e+00 2.52443300e+02 7.54677100e-03 1.02335300e-01
       11 -1    0    0    0    0 +0.0000000000e+00 +0.0000000000e+00 +9.1040564432e+01 9.1040564432e+01 0.0000000000e+00 0.0000e+00 1.0000e+00
      -11 -1    0    0    0    0 -0.0000000000e+00 -0.0000000000e+00 -1.7499792958e+02 1.7499792958e+02 0.0000000000e+00 0.0000e+00 -1.0000e+00
       13  1    1    2    0    0 -5.5281870888e+01 -8.4788928600e+01 -1.2144979469e+02 1.5809902053e+02 0.0000000000e+00 0.0000e+00 -1.0000e+00
      -13  1    1    2    0    0 +5.5281870888e+01 +8.4788928600e+01 +3.7492429544e+01 1.0793947348e+02 0.0000000000e+00 0.0000e+00 1.0000e+00
</event>
<event>
 4      1 +1.7491400e+00 8.30671800e+01 7.54677100e-03 1.19684000e-01
       11 -1    0    0    0    0 +0.0000000000e+00 +0.0000000000e+00 +9.8588475719e+00 9.8588475719e+00 0.0000000000e+00 0.0000e+00 -1.0000e+00
      -11 -1    0    0    0    0 -0.0000000000e+00 -0.0000000000e+00 -1.7497371585e+02 1.7497371585e+02 0.0000000000e+00 0.0000e+00 1.0000e+00
       13  1    1    2    0    0 +1.4586873332e+01 +1.9930288955e+01 -1.5685855762e+02 1.5879105891e+02 0.0000000000e+00 0.0000e+00 1.0000e+00
      -13  1    1    2    0    0 -1.4586873332e+01 -1.9930288955e+01 -8.2563106563e+00 2.6041504509e+01 0.0000000000e+00 0.0000e+00 -1.0000e+00
</event>
<event>
 4      1 +1.7491400e+00 3.49976900e+02 7.54677100e-03 9.81697100e-02
       11 -1    0    0    0    0 +0.0000000000e+00 +0.0000000000e+00 +1.7498112793e+02 1.7498112793e+02 0.0000000000e+00 0.0000e+00 -1.0000e+00
      -11 -1    0    0    0    0 -0.0000000000e+00 -0.0000000000e+00 -1.7499575560e+02 1.7499575560e+02 0.0000000000e+00 0.0000e+00 1.0000e+00
       13  1    1    2    0    0 -8.7407865279e+00 +7.5721664511e+01 -1.5752170339e+02 1.7499502525e+02 0.0000000000e+00 0.0000e+00 1.0000e+00
      -13  1    1    2    0    0 +8.7407865279e+00 -7.5721664511e+01 +1.5750707571e+02 1.7498185827e+02 0.0000000000e+00 0.0000e+00 -1.0000e+00
</event>
<event>
 4      1 +1.7491400e+00 2.05329100e+02 7.54677100e-03 1.05160800e-01
       11 -1    0    0    0    0 +0.0000000000e+00 +0.0000000000e+00 +7.4534552941e+01 7.4534552941e+01 0.0000000000e+00 0.0000e+00 -1.0000e+00
      -11 -1    0    0    0    0 -0.0000000000e+00 -0.0000000000e+00 -1.4141111324e+02 1.4141111324e+02 0.0000000000e+00 0.0000e+00 1.0000e+00
       13  1    1    2    0    0 -1.8211898706e+01 -5.7684555006e+01 +5.3801469085e+01 8.0955414991e+01 0.0000000000e+00 0.0000e+00 -1.0000e+00
      -13  1    1    2    0    0 +1.8211898706e+01 +5.7684555006e+01 -1.2067802939e+02 1.3499025119e+02 0.0000000000e+00 0.0000e+00 1.0000e+00
</event>
<event>
 4      1 +1.7491400e+00 9.17177500e+01 7.54677100e-03 1.17897000e-01
       11 -1    0    0    0    0 +0.0000000000e+00 +0.0000000000e+00 +1.7500035401e+02 1.7500035401e+02 0.0000000000e+00 0.0000e+00 -1.0000e+00
      -11 -1    0    0    0    0 -0.0000000000e+00 -0.0000000000e+00 -1.2017326055e+01 1.2017326055e+01 0.0000000000e+00 0.0000e+00 1.0000e+00
       13  1    1    2    0    0 +1.4484059680e+01 -3.3747655817e+01 +1.3749486574e+02 1.4231489859e+02 0.0000000000e+00 0.0000e+00 -1.0000e+00
      -13  1    1    2    0    0 -1.4484059680e+01 +3.3747655817e+01 +2.5488162217e+01 4.4702781470e+01 0.0000000000e+00 0.0000e+00 1.0000e+00
</event>
<event>
 4      1 +1.7491400e+00 8.86807100e+01 7.54677100e-03 1.18498300e-01
       11 -1    0    0    0    0 +0.0000000000e+00 +0.0000000000e+00 +1.7499983549e+02 1.7499983549e+02 0.0000000000e+00 0.0000e+00 1.0000e+00
      -11 -1    0    0    0    0 -0.0000000000e+00 -0.0000000000e+00 -1.1234678985e+01 1.1234678985e+01 0.0000000000e+00 0.0000e+00 -1.0000e+00
       13  1    1    2    0    0 -2.4022632716e+01 -2.3695980348e+01 +2.1472425550e+01 3.9995642591e+01 0.0000000000e+00 0.0000e+00 -1.0000e+00
      -13  1    1    2    0    0 +2.4022632716e+01 +2.3695980348e+01 +1.4229273096e+02 1.4623887189e+02 0.0000000000e+00 0.0000e+00 1.0000e+00
</event>
<event>
 4      1 +1.7491400e+00 9.13510100e+01 7.54677100e-03 1.17968200e-01
       11 -1    0    0    0    0 +0.0000000000e+00 +0.0000000000e+00 +6.5332147711e+01 6.5332147711e+01 0.0000000000e+00 0.0000e+00 -1.0000e+00
      -11 -1    0    0    0    0 -0.0000000000e+00 -0.0000000000e+00 -3.1933005770e+01 3.1933005770e+01 0.0000000000e+00 0.0000e+00 1.0000e+00
       13  1    1    2    0    0 -5.1784454578e+00 -2.8621852499e+01 -2.0797226212e+01 3.5756836492e+01 0.0000000000e+00 0.0000e+00 -1.0000e+00
      -13  1    1    2    0    0 +5.1784454578e+00 +2.8621852499e+01 +5.4196368152e+01 6.1508316988e+01 0.0000000000e+00 0.0000e+00 1.0000e+00
</event>
<event>
 4      1 +1.7491400e+00 3.49782400e+02 7.54677100e-03 9.81765000e-02
       11 -1    0    0    0    0 +0.0000000000e+00 +0.0000000000e+00 +1.7478161101e+02 1.7478161101e+02 0.0000000000e+00 0.0000e+00 -1.0000e+00
      -11 -1    0    0    0    0 -0.0000000000e+00 -0.0000000000e+00 -1.7500090429e+02 1.7500090429e+02 0.0000000000e+00 0.0000e+00 1.0000e+00
       13  1    1    2    0    0 -5.8954268824e+00 +2.3173527407e+01 -1.7335855240e+02 1.7499987463e+02 0.0000000000e+00 0.0000e+00 1.0000e+00
      -13  1    1    2    0    0 +5.8954268824e+00 -2.3173527407e+01 +1.7313925912e+02 1.7478264067e+02 0.0000000000e+00 0.0000e+00 -1.0000e+00
</event>
<event>
 4      1 +1.7491400e+00 1.85777900e+02 7.54677100e-03 1.06587500e-01
       11 -1    0    0    0    0 +0.0000000000e+00 +0.0000000000e+00 +5.0564633046e+01 5.0564633046e+01 0.0000000000e+00 0.0000e+00 -1.0000e+00
      -11 -1    0    0    0    0 -0.0000000000e+00 -0.0000000000e+00 -1.7064010685e+02 1.7064010685e+02 0.0000000000e+00 0.0000e+00 1.0000e+00
       13  1    1    2    0    0 -5.3546977666e+01 +3.1591967933e+01 -1.4221313017e+02 1.5520923184e+02 0.0000000000e+00 0.0000e+00 1.0000e+00
      -13  1    1    2    0    0 +5.3546977666e+01 -3.1591967933e+01 +2.2137656363e+01 6.5995508061e+01 0.0000000000e+00 0.0000e+00 -1.0000e+00
</event>
<event>
 4      1 +1.7491400e+00 8.98808300e+01 7.54677100e-03 1.18257500e-01
       11 -1    0    0    0    0 +0.0000000000e+00 +0.0000000000e+00 +1.1642026168e+01 1.1642026168e+01 0.0000000000e+00 0.0000e+00 -1.0000e+00
      -11 -1    0    0    0    0 -0.0000000000e+00 -0.0000000000e+00 -1.7347846048e+02 1.7347846048e+02 0.0000000000e+00 0.0000e+00 1.0000e+00
       13  1    1    2    0    0 +3.6102168650e+01 -2.4453561580e+01 -1.0331962148e+02 1.1214404772e+02 0.0000000000e+00 0.0000e+00 -1.0000e+00
      -13  1    1    2    0    0 -3.6102168650e+01 +2.4453561580e+01 -5.8516812831e+01 7.2976438931e+01 0.0000000000e+00 0.0000e+00 1.0000e+00
</event>
<event>
 4      1 +1.7491400e+00 3.47154900e+02 7.54677100e-03 9.82687700e-02
       11 -1    0    0    0    0 +0.0000000000e+00 +0.0000000000e+00 +1.7498330237e+02 1.7498330237e+02 0.0000000000e+00 0.0000e+00 1.0000e+00
      -11 -1    0    0    0    0 -0.0000000000e+00 -0.0000000000e+00 -1.7218291176e+02 1.7218291176e+02 0.0000000000e+00 0.0000e+00 -1.0000e+00
       13  1    1    2    0    0 -9.0620744903e+01 -1.3085779531e+01 -1.4606909813e+02 1.7239355690e+02 0.0000000000e+00 0.0000e+00 -1.0000e+00
      -13  1    1    2    0    0 +9.0620744903e+01 +1.3085779531e+01 +1.4886948875e+02 1.7477265722e+02 0.0000000000e+00 0.0000e+00 1.0000e+00
</event>
<event>
 4      1 +1.7491400e+00 1.39095400e+02 7.54677100e-03 1.10945400e-01
       11 -1    0    0    0    0 +0.0000000000e+00 +0.0000000000e+00 +1.7499891617e+02 1.7499891617e+02 0.0000000000e+00 0.0000e+00 1.0000e+00
      -11 -1    0    0    0    0 -0.0000000000e+00 -0.0000000000e+00 -2.7639516320e+01 2.7639516320e+01 0.0000000000e+00 0.0000e+00 -1.0000e+00
       13  1    1    2    0    0 -4.5672140075e+01 -5.3528930076e+00 +1.4969060816e+02 1.5659462319e+02 0.0000000000e+00 0.0000e+00 1.0000e+00
      -13  1    1    2    0    0 +4.5672140075e+01 +5.3528930076e+00 -2.3312083043e+00 4.6043809299e+01 0.0000000000e+00 0.0000e+00 -1.0000e+00
</event>
<event>
 5      1 +1.7491400e+00 6.86912300e+01 7.54677100e-03 1.23271700e-01
       11 -1    0    0    0    0 +0.0000000000e+00 +0.0000000000e+00 +6.7409577869e+00 6.7409577869e+00 0.0000000000e+00 0.0000e+00 1.0000e+00
      -11 -1    0    0    0    0 -0.0000000000e+00 -0.0000000000e+00 -1.7499312052e+02 1.7499312052e+02 0.0000000000e+00 0.0000e+00 -1.0000e+00
       23  2    1    2    0    0 +0.0000000000e+00 +0.0000000000e+00 -1.6825216273e+02 1.8173407830e+02 6.8691229088e+01 0.0000e+00 0.0000e+00
       13  1    3    3    0    0 -1.9574811466e+01 +1.2611835919e+01 -1.5092009921e+02 1.5270595272e+02 0.0000000000e+00 0.0000e+00 -1.0000e+00
      -13  1    3    3    0    0 +1.9574811466e+01 -1.2611835919e+01 -1.7332063514e+01 2.9028125583e+01 0.0000000000e+00 0.0000e+00 1.0000e+00
</event>
<event>
 5      1 +1.7491400e+00 9.64336500e+01 7.54677100e-03 1.17013200e-01
       11 -1    0    0    0    0 +0.0000000000e+00 +0.0000000000e+00 +1.3284768235e+01 1.3284768235e+01 0.0000000000e+00 0.0000e+00 -1.0000e+00
      -11 -1    0    0    0    0 -0.0000000000e+00 -0.0000000000e+00 -1.7500210064e+02 1.7500210064e+02 0.0000000000e+00 0.0000e+00 1.0000e+00
       23  2    1    2    0    0 +0.0000000000e+00 +0.0000000000e+00 -1.6171733241e+02 1.8828686888e+02 9.6433652791e+01 0.0000e+00 0.0000e+00
       13  1    3    3    0    0 -3.6412918354e+00 +4.6995746412e+01 -1.0067469804e+02 1.1116318641e+02 0.0000000000e+00 0.0000e+00 1.0000e+00
      -13  1    3    3    0    0 +3.6412918354e+00 -4.6995746412e+01 -6.1042634373e+01 7.7123682473e+01 0.0000000000e+00 0.0000e+00 -1.0000e+00
</event>
<event>
 4      1 +1.7491400e+00 9.17041300e+01 7.54677100e-03 1.17899700e-01
       11 -1    0    0    0    0 +0.0000000000e+00 +0.0000000000e+00 +1.7499894136e+02 1.7499894136e+02 0.0000000000e+00 0.0000e+00 -1.0000e+00
      -11 -1    0    0    0    0 -0.0000000000e+00 -0.0000000000e+00 -1.2013855378e+01 1.2013855378e+01 0.0000000000e+00 0.0000e+00 1.0000e+00
       13  1    1    2    0    0 -2.3372023307e+01 +7.5929248705e+00 +2.5498476398e+00 2.4706389953e+01 0.0000000000e+00 0.0000e+00 1.0000e+00
      -13  1    1    2    0    0 +2.3372023307e+01 -7.5929248705e+00 +1.6043523835e+02 1.6230640679e+02 0.0000000000e+00 0.0000e+00 -1.0000e+00
</event>
<event>
 4      1 +1.7491400e+00 1.13261400e+02 7.54677100e-03 1.14267300e-01
       11 -1    0    0    0    0 +0.0000000000e+00 +0.0000000000e+00 +1.7500039910e+02 1.7500039910e+02 0.0000000000e+00 0.0000e+00 -1.0000e+00
      -11 -1    0    0    0    0 -0.0000000000e+00 -0.0000000000e+00 -1.8325875980e+01 1.8325875980e+01 0.0000000000e+00 0.0000e+00 1.0000e+00
       13  1    1    2    0    0 +3.9761300941e+01 +3.9046373106e+01 +6.1144470824e+01 8.2729841156e+01 0.0000000000e+00 0.0000e+00 -1.0000e+00
      -13  1    1    2    0    0 -3.9761300941e+01 -3.9046373106e+01 +9.5530052300e+01 1.1059643393e+02 0.0000000000e+00 0.0000e+00 1.0000e+00
</event>
<event>
 4      1 +1.7491400e+00 3.46885600e+02 7.54677100e-03 9.82782700e-02
       11 -1    0    0    0    0 +0.0000000000e+00 +0.0000000000e+00 +1.7499864022e+02 1.7499864022e+02 0.0000000000e+00 0.0000e+00 -1.0000e+00
      -11 -1    0    0    0    0 -0.0000000000e+00 -0.0000000000e+00 -1.7190076316e+02 1.7190076316e+02 0.0000000000e+00 0.0000e+00 1.0000e+00
       13  1    1    2    0    0 -2.1167972881e+00 +7.1344062977e+01 +1.5963099493e+02 1.7486140425e+02 0.0000000000e+00 0.0000e+00 -1.0000e+00
      -13  1    1    2    0    0 +2.1167972881e+00 -7.1344062977e+01 -1.5653311787e+02 1.7203799912e+02 0.0000000000e+00 0.0000e+00 1.0000e+00
</event>
<event>
 4      1 +1.7491400e+00 3.37887000e+02 7.54677100e-03 9.86013300e-02
       11 -1    0    0    0    0 +0.0000000000e+00 +0.0000000000e+00 +1.7499616399e+02 1.7499616399e+02 0.0000000000e+00 0.0000e+00 -1.0000e+00
      -11 -1    0    0    0    0 -0.0000000000e+00 -0.0000000000e+00 -1.6310018146e+02 1.6310018146e+02 0.0000000000e+00 0.0000e+00 1.0000e+00
       13  1    1    2    0    0 -1.6145553328e+02 -2.9267934208e+01 -3.4293898915e+01 1.6763225437e+02 0.0000000000e+00 0.0000e+00 1.0000e+00
      -13  1    1    2    0    0 +1.6145553328e+02 +2.9267934208e+01 +4.6189881440e+01 1.7046409108e+02 0.0000000000e+00 0.0000e+00 -1.0000e+00
</event>
<event>
 5      1 +1.7491400e+00 8.98043500e+01 7.54677100e-03 1.18272700e-01
       11 -1    0    0    0    0 +0.0000000000e+00 +0.0000000000e+00 +1.1522186791e+01 1.1522186791e+01 0.0000000000e+00 0.0000e+00 1.0000e+00
      -11 -1    0    0    0    0 -0.0000000000e+00 -0.0000000000e+00 -1.7498461090e+02 1.7498461090e+02 0.0000000000e+00 0.0000e+00 -1.0000e+00
       23  2    1    2    0    0 +0.0000000000e+00 +0.0000000000e+00 -1.6346242411e+02 1.8650679769e+02 8.9804351171e+01 0.0000e+00 0.0000e+00
       13  1    3    3    0    0 +2.2165006373e+01 +6.0310787623e+00 -1.6185807084e+02 1.6347995753e+02 0.0000000000e+00 0.0000e+00 -1.0000e+00
      -13  1    3    3    0    0 -2.2165006373e+01 -6.0310787623e+00 -1.6043532756e+00 2.3026840165e+01 0.0000000000e+00 0.0000e+00 1.0000e+00
</event>
<event>
 5      1 +1.7491400e+00 9.08368800e+01 7.54677100e-03 1.18068700e-01
       11 -1    0    0    0    0 +0.0000000000e+00 +0.0000000000e+00 +1.7499964235e+02 1.7499964235e+02 0.0000000000e+00 0.0000e+00 -1.0000e+00
      -11 -1    0    0    0    0 -0.0000000000e+00 -0.0000000000e+00 -1.1787650511e+01 1.1787650511e+01 0.0000000000e+00 0.0000e+00 1.0000e+00
       23  2    1    2    0    0 +0.0000000000e+00 +0.0000000000e+00 +1.6321199184e+02 1.8678729286e+02 9.0836878491e+01 0.0000e+00 0.0000e+00
       13  1    3    3    0    0 +7.5633005246e+00 +3.7768513385e+01 +3.2119312948e+01 5.0152910010e+01 0.0000000000e+00 0.0000e+00 1.0000e+00
      -13  1    3    3    0    0 -7.5633005246e+00 -3.7768513385e+01 +1.3109267889e+02 1.3663438285e+02 0.0000000000e+00 0.0000e+00 -1.0000e+00
</event>
<event>
 4      1 +1.7491400e+00 9.38035700e+01 7.54677100e-03 1.17499000e-01
       11 -1    0    0    0    0 +0.0000000000e+00 +0.0000000000e+00 +1.7499872739e+02 1.7499872739e+02 0.0000000000e+00 0.0000e+00 -1.0000e+00
      -11 -1    0    0    0    0 -0.0000000000e+00 -0.0000000000e+00 -1.2570247372e+01 1.2570247372e+01 0.0000000000e+00 0.0000e+00 1.0000e+00
       13  1    1    2    0    0 +4.4019159658e+01 -1.5576981123e+01 +9.0032544676e+01 1.0142084529e+02 0.0000000000e+00 0.0000e+00 -1.0000e+00
      -13  1    1    2    0    0 -4.4019159658e+01 +1.5576981123e+01 +7.2395935343e+01 8.6148129475e+01 0.0000000000e+00 0.0000e+00 1.0000e+00
</event>
<event>
 5      1 +1.7491400e+00 9.36083000e+01 7.54677100e-03 1.17535700e-01
       11 -1    0    0    0    0 +0.0000000000e+00 +0.0000000000e+00 +1.3808710554e+01 1.3808710554e+01 0.0000000000e+00 0.0000e+00 1.0000e+00
      -11 -1    0    0    0    0 -0.0000000000e+00 -0.0000000000e+00 -1.5864106080e+02 1.5864106080e+02 0.0000000000e+00 0.0000e+00 -1.0000e+00
       23  2    1    2    0    0 +0.0000000000e+00 +0.0000000000e+00 -1.4483235025e+02 1.7244977135e+02 9.3608300711e+01 0.0000e+00 0.0000e+00
       13  1    3    3    0    0 +2.1041679399e+01 -1.4408815988e-01 -1.4943573256e+02 1.5090994401e+02 0.0000000000e+00 0.0000e+00 -1.0000e+00
      -13  1    3    3    0    0 -2.1041679399e+01 +1.4408815988e-01 +4.6033823177e+00 2.1539827346e+01 0.0000000000e+00 0.0000e+00 1.0000e+00
</event>
<event>
 4      1 +1.7491400e+00 3.50000000e+02 7.54677100e-03 9.81689000e-02
       11 -1    0    0    0    0 +0.0000000000e+00 +0.0000000000e+00 +1.7499999966e+02 1.7499999966e+02 0.0000000000e+00 0.0000e+00 -1.0000e+00
      -11 -1    0    0    0    0 -0.0000000000e+00 -0.0000000000e+00 -1.7499999966e+02 1.7499999966e+02 0.0000000000e+00 0.0000e+00 1.0000e+00
       13  1    1    2    0    0 -1.0244674935e+02 +1.4150448057e+02 +1.0302689401e+01 1.7499999966e+02 0.0000000000e+00 0.0000e+00 -1.0000e+00
      -13  1    1    2    0    0 +1.0244674935e+02 -1.4150448057e+02 -1.0302689401e+01 1.7499999966e+02 0.0000000000e+00 0.0000e+00 1.0000e+00
</event>
<event>
 4      1 +1.7491400e+00 3.38809200e+02 7.54677100e-03 9.85677300e-02
       11 -1    0    0    0    0 +0.0000000000e+00 +0.0000000000e+00 +1.7499550891e+02 1.7499550891e+02 0.0000000000e+00 0.0000e+00 1.0000e+00
      -11 -1    0    0    0    0 -0.0000000000e+00 -0.0000000000e+00 -1.6399235209e+02 1.6399235209e+02 0.0000000000e+00 0.0000e+00 -1.0000e+00
       13  1    1    2    0    0 -9.0961236275e+01 -9.2391702992e+01 -1.0358687056e+02 1.6595304468e+02 0.0000000000e+00 0.0000e+00 -1.0000e+00
      -13  1    1    2    0    0 +9.0961236275e+01 +9.2391702992e+01 +1.1459002738e+02 1.7303481633e+02 0.0000000000e+00 0.0000e+00 1.0000e+00
</event>
<event>
 4      1 +1.7491400e+00 8.73727600e+01 7.54677100e-03 1.18765600e-01
       11 -1    0    0    0    0 +0.0000000000e+00 +0.0000000000e+00 +1.7499881743e+02 1.7499881743e+02 0.0000000000e+00 0.0000e+00 1.0000e+00
      -11 -1    0    0    0    0 -0.0000000000e+00 -0.0000000000e+00 -1.0905786254e+01 1.0905786254e+01 0.0000000000e+00 0.0000e+00 -1.0000e+00
       13  1    1    2    0    0 -1.1278850164e+01 -4.0600327432e+01 +5.7517639339e+01 7.1301317545e+01 0.0000000000e+00 0.0000e+00 -1.0000e+00
      -13  1    1    2    0    0 +1.1278850164e+01 +4.0600327432e+01 +1.0657539184e+02 1.1460328614e+02 0.0000000000e+00 0.0000e+00 1.0000e+00
</event>
<event>
 4      1 +1.7491400e+00 3.49502700e+02 7.54677100e-03 9.81862800e-02
       11 -1    0    0    0    0 +0.0000000000e+00 +0.0000000000e+00 +1.7499254083e+02 1.7499254083e+02 0.0000000000e+00 0.0000e+00 -1.0000e+00
      -11 -1    0    0    0    0 -0.0000000000e+00 -0.0000000000e+00 -1.7451048113e+02 1.7451048113e+02 0.0000000000e+00 0.0000e+00 1.0000e+00
       13  1    1    2    0    0 +9.3275825344e+01 +5.6636457011e+01 +1.3673278814e+02 1.7493977023e+02 0.0000000000e+00 0.0000e+00 -1.0000e+00
      -13  1    1    2    0    0 -9.3275825344e+01 -5.6636457011e+01 -1.3625072844e+02 1.7456325173e+02 0.0000000000e+00 0.0000e+00 1.0000e+00
</event>
<event>
 4      1 +1.7491400e+00 3.49941200e+02 7.54677100e-03 9.81709600e-02
       11 -1    0    0    0    0 +0.0000000000e+00 +0.0000000000e+00 +1.7499739956e+02 1.7499739956e+02 0.0000000000e+00 0.0000e+00 -1.0000e+00
      -11 -1    0    0    0    0 -0.0000000000e+00 -0.0000000000e+00 -1.7494377023e+02 1.7494377023e+02 0.0000000000e+00 0.0000e+00 1.0000e+00
       13  1    1    2    0    0 -1.6691862392e+02 +5.2403971905e+01 -2.5619260075e+00 1.7497018816e+02 0.0000000000e+00 0.0000e+00 -1.0000e+00
      -13  1    1    2    0    0 +1.6691862392e+02 -5.2403971905e+01 +2.6155553437e+00 1.7497098163e+02 0.0000000000e+00 0.0000e+00 1.0000e+00
</event>
<event>
 5      1 +1.7491400e+00 9.70063800e+01 7.54677100e-03 1.16909700e-01
       11 -1    0    0    0    0 +0.0000000000e+00 +0.0000000000e+00 +1.3478794693e+01 1.3478794693e+01 0.0000000000e+00 0.0000e+00 -1.0000e+00
      -11 -1    0    0    0    0 -0.0000000000e+00 -0.0000000000e+00 -1.7453782332e+02 1.7453782332e+02 0.0000000000e+00 0.0000e+00 1.0000e+00
       23  2    1    2    0    0 +0.0000000000e+00 +0.0000000000e+00 -1.6105902863e+02 1.8801661802e+02 9.7006380961e+01 0.0000e+00 0.0000e+00
       13  1    3    3    0    0 -1.7545398695e+01 -3.2508136340e+01 -1.9609342670e+01 4.1822795980e+01 0.0000000000e+00 0.0000e+00 -1.0000e+00
      -13  1    3    3    0    0 +1.7545398695e+01 +3.2508136340e+01 -1.4144968596e+02 1.4619382204e+02 0.0000000000e+00 0.0000e+00 1.0000e+00
</event>
<event>
 5      1 +1.7491400e+00 9.20744000e+01 7.54677100e-03 1.17828100e-01
       11 -1    0    0    0    0 +0.0000000000e+00 +0.0000000000e+00 +1.7499850948e+02 1.7499850948e+02 0.0000000000e+00 0.0000e+00 -1.0000e+00
      -11 -1    0    0    0    0 -0.0000000000e+00 -0.0000000000e+00 -1.2111095106e+01 1.2111095106e+01 0.0000000000e+00 0.0000e+00 1.0000e+00
       23  2    1    2    0    0 +0.0000000000e+00 +0.0000000000e+00 +1.6288741438e+02 1.8710960459e+02 9.2074395827e+01 0.0000e+00 0.0000e+00
       13  1    3    3    0    0 -2.9018119913e+01 +6.7959784659e+00 +1.0138834112e+01 3.1480669684e+01 0.0000000000e+00 0.0000e+00 1.0000e+00
      -13  1    3    3    0    0 +2.9018119913e+01 -6.7959784659e+00 +1.5274858027e+02 1.5562893490e+02 0.0000000000e+00 0.0000e+00 -1.0000e+00
</event>
<event>
 5      1 +1.7491400e+00 6.52106800e+01 7.54677100e-03 1.24292100e-01
       11 -1    0    0    0    0 +0.0000000000e+00 +0.0000000000e+00 +3.5615254194e+01 3.5615254194e+01 0.0000000000e+00 0.0000e+00 1.0000e+00
      -11 -1    0    0    0    0 -0.0000000000e+00 -0.0000000000e+00 -2.9849801262e+01 2.9849801262e+01 0.0000000000e+00 0.0000e+00 -1.0000e+00
       23  2    1    2    0    0 +0.0000000000e+00 +0.0000000000e+00 +5.7654529320e+00 6.5465055456e+01 6.5210681934e+01 0.0000e+00 0.0000e+00
       13  1    3    3    0    0 +3.7558566215e+00 +2.5062608999e+01 +2.3477805252e+01 3.4546319170e+01 0.0000000000e+00 0.0000e+00 1.0000e+00
      -13  1    3    3    0    0 -3.7558566215e+00 -2.5062608999e+01 -1.7712352320e+01 3.0918736285e+01 0.0000000000e+00 0.0000e+00 -1.0000e+00
</event>
<event>
 4      1 +1.7491400e+00 3.49854800e+02 7.54677100e-03 9.81739700e-02
       11 -1    0    0    0    0 +0.0000000000e+00 +0.0000000000e+00 +1.7499566675e+02 1.7499566675e+02 0.0000000000e+00 0.0000e+00 1.0000e+00
      -11 -1    0    0    0    0 -0.0000000000e+00 -0.0000000000e+00 -1.7485918748e+02 1.7485918748e+02 0.0000000000e+00 0.0000e+00 -1.0000e+00
       13  1    1    2    0    0 +1.5509827709e+02 +6.0899057610e+01 +5.3316993239e+01 1.7494819959e+02 0.0000000000e+00 0.0000e+00 1.0000e+00
      -13  1    1    2    0    0 -1.5509827709e+02 -6.0899057610e+01 -5.3180513971e+01 1.7490665464e+02 0.0000000000e+00 0.0000e+00 -1.0000e+00
</event>
<event>
 4      1 +1.7491400e+00 6.03748800e+01 7.54677100e-03 1.25836400e-01
       11 -1    0    0    0    0 +0.0000000000e+00 +0.0000000000e+00 +1.7499923172e+02 1.7499923172e+02 0.0000000000e+00 0.0000e+00 -1.0000e+00
      -11 -1    0    0    0    0 -0.0000000000e+00 -0.0000000000e+00 -5.2073453993e+00 5.2073453993e+00 0.0000000000e+00 0.0000e+00 1.0000e+00
       13  1    1    2    0    0 -1.1825270996e+01 +2.0359538718e+01 +2.8505164633e+01 3.6971506078e+01 0.0000000000e+00 0.0000e+00 1.0000e+00
      -13  1    1    2    0    0 +1.1825270996e+01 -2.0359538718e+01 +1.4128672169e+02 1.4323507105e+02 0.0000000000e+00 0.0000e+00 -1.0000e+00
</event>
<event>
 5      1 +1.7491400e+00 6.16620100e+01 7.54677100e-03 1.25409700e-01
       11 -1    0    0    0    0 +0.0000000000e+00 +0.0000000000e+00 +5.4304766367e+00 5.4304766367e+00 0.0000000000e+00 0.0000e+00 1.0000e+00
      -11 -1    0    0    0    0 -0.0000000000e+00 -0.0000000000e+00 -1.7504007225e+02 1.7504007225e+02 0.0000000000e+00 0.0000e+00 -1.0000e+00
       23  2    1    2    0    0 +0.0000000000e+00 +0.0000000000e+00 -1.6960959561e+02 1.8047054889e+02 6.1662014980e+01 0.0000e+00 0.0000e+00
       13  1    3    3    0    0 +1.8642337784e+01 +1.4286738539e+01 -1.4325990721e+02 1.4517247904e+02 0.0000000000e+00 0.0000e+00 -1.0000e+00
      -13  1    3    3    0    0 -1.8642337784e+01 -1.4286738539e+01 -2.6349688405e+01 3.5298069850e+01 0.0000000000e+00 0.0000e+00 1.0000e+00
</event>
<event>
 4      1 +1.7491400e+00 9.11773200e+01 7.54677100e-03 1.18002100e-01
       11 -1    0    0    0    0 +0.0000000000e+00 +0.0000000000e+00 +1.1875401631e+01 1.1875401631e+01 0.0000000000e+00 0.0000e+00 -1.0000e+00
      -11 -1    0    0    0    0 -0.0000000000e+00 -0.0000000000e+00 -1.7501100024e+02 1.7501100024e+02 0.0000000000e+00 0.0000e+00 1.0000e+00
       13  1    1    2    0    0 +2.2993979451e+01 +3.1971145813e+01 -3.4493812881e+01 5.2351698947e+01 0.0000000000e+00 0.0000e+00 -1.0000e+00
      -13  1    1    2    0    0 -2.2993979451e+01 -3.1971145813e+01 -1.2864178573e+02 1.3453470293e+02 0.0000000000e+00 0.0000e+00 1.0000e+00
</event>
<event>
 4      1 +1.7491400e+00 9.82929600e+01 7.54677100e-03 1.16680200e-01
       11 -1    0    0    0    0 +0.0000000000e+00 +0.0000000000e+00 +1.3810626498e+01 1.3810626498e+01 0.0000000000e+00 0.0000e+00 1.0000e+00
      -11 -1    0    0    0    0 -0.0000000000e+00 -0.0000000000e+00 -1.7489260252e+02 1.7489260252e+02 0.0000000000e+00 0.0000e+00 -1.0000e+00
       13  1    1    2    0    0 +2.6048640960e+01 +1.0371927203e+01 -3.0496484455e+00 2.8202994972e+01 0.0000000000e+00 0.0000e+00 1.0000e+00
      -13  1    1    2    0    0 -2.6048640960e+01 -1.0371927203e+01 -1.5803232758e+02 1.6050023405e+02 0.0000000000e+00 0.0000e+00 -1.0000e+00
</event>
<event>
 4      1 +1.7491400e+00 8.86749200e+01 7.54677100e-03 1.18499400e-01
       11 -1    0    0    0    0 +0.0000000000e+00 +0.0000000000e+00 +1.1234144129e+01 1.1234144129e+01 0.0000000000e+00 0.0000e+00 1.0000e+00
      -11 -1    0    0    0    0 -0.0000000000e+00 -0.0000000000e+00 -1.7498532174e+02 1.7498532174e+02 0.0000000000e+00 0.0000e+00 -1.0000e+00
       13  1    1    2    0    0 +6.4993653767e+00 +2.6878464606e+01 -1.5465639810e+02 1.5710918205e+02 0.0000000000e+00 0.0000e+00 -1.0000e+00
      -13  1    1    2    0    0 -6.4993653767e+00 -2.6878464606e+01 -9.0947795091e+00 2.9110283822e+01 0.0000000000e+00 0.0000e+00 1.0000e+00
</event>
<event>
 4      1 +1.7491400e+00 3.42625900e+02 7.54677100e-03 9.84298700e-02
       11 -1    0    0    0    0 +0.0000000000e+00 +0.0000000000e+00 +1.6770482596e+02 1.6770482596e+02 0.0000000000e+00 0.0000e+00 -1.0000e+00
      -11 -1    0    0    0    0 -0.0000000000e+00 -0.0000000000e+00 -1.7499872688e+02 1.7499872688e+02 0.0000000000e+00 0.0000e+00 1.0000e+00
       13  1    1    2    0    0 +7.1517197908e+01 -6.5657670484e+01 -1.4482598714e+02 1.7435654803e+02 0.0000000000e+00 0.0000e+00 1.0000e+00
      -13  1    1    2    0    0 -7.1517197908e+01 +6.5657670484e+01 +1.3753208622e+02 1.6834700482e+02 0.0000000000e+00 0.0000e+00 -1.0000e+00
</event>
<event>
 5      1 +1.7491400e+00 8.97284600e+01 7.54677100e-03 1.18287800e-01
       11 -1    0    0    0    0 +0.0000000000e+00 +0.0000000000e+00 +1.7123138759e+02 1.7123138759e+02 0.0000000000e+00 0.0000e+00 1.0000e+00
      -11 -1    0    0    0    0 -0.0000000000e+00 -0.0000000000e+00 -1.1754848892e+01 1.1754848892e+01 0.0000000000e+00 0.0000e+00 -1.0000e+00
       23  2    1    2    0    0 +0.0000000000e+00 +0.0000000000e+00 +1.5947653870e+02 1.8298623649e+02 8.9728458958e+01 0.0000e+00 0.0000e+00
       13  1    3    3    0    0 -1.3556485862e+01 -3.1787626439e+01 +2.1391678330e+01 4.0642778022e+01 0.0000000000e+00 0.0000e+00 -1.0000e+00
      -13  1    3    3    0    0 +1.3556485862e+01 +3.1787626439e+01 +1.3808486037e+02 1.4234345846e+02 0.0000000000e+00 0.0000e+00 1.0000e+00
</event>
<event>
 5      1 +1.7491400e+00 9.39795000e+01 7.54677100e-03 1.17465900e-01
       11 -1    0    0    0    0 +0.0000000000e+00 +0.0000000000e+00 +1.7499920025e+02 1.7499920025e+02 0.0000000000e+00 0.0000e+00 -1.0000e+00
      -11 -1    0    0    0    0 -0.0000000000e+00 -0.0000000000e+00 -1.2617408950e+01 1.2617408950e+01 0.0000000000e+00 0.0000e+00 1.0000e+00
       23  2    1    2    0    0 +0.0000000000e+00 +0.0000000000e+00 +1.6238179130e+02 1.8761660920e+02 9.3979497240e+01 0.0000e+00 0.0000e+00
       13  1    3    3    0    0 +8.5813241227e+00 -3.7444776672e+01 +2.7167914487e+01 4.7051524962e+01 0.0000000000e+00 0.0000e+00 1.0000e+00
      -13  1    3    3    0    0 -8.5813241227e+00 +3.7444776672e+01 +1.3521387681e+02 1.4056508423e+02 0.0000000000e+00 0.0000e+00 -1.0000e+00
</event>
<event>
 5      1 +1.7491400e+00 8.63991100e+01 7.54677100e-03 1.18968000e-01
       11 -1    0    0    0    0 +0.0000000000e+00 +0.0000000000e+00 +1.0664477411e+01 1.0664477411e+01 0.0000000000e+00 0.0000e+00 1.0000e+00
      -11 -1    0    0    0    0 -0.0000000000e+00 -0.0000000000e+00 -1.7499229981e+02 1.7499229981e+02 0.0000000000e+00 0.0000e+00 -1.0000e+00
       23  2    1    2    0    0 +0.0000000000e+00 +0.0000000000e+00 -1.6432782240e+02 1.8565677722e+02 8.6399107136e+01 0.0000e+00 0.0000e+00
       13  1    3    3    0    0 +1.1127683445e+01 -3.4257975511e+01 -3.0916866470e+01 4.7468798777e+01 0.0000000000e+00 0.0000e+00 -1.0000e+00
      -13  1    3    3    0    0 -1.1127683445e+01 +3.4257975511e+01 -1.3341095593e+02 1.3818797845e+02 0.0000000000e+00 0.0000e+00 1.0000e+00
</event>
<event>
 4      1 +1.7491400e+00 1.55203500e+02 7.54677100e-03 1.09253200e-01
       11 -1    0    0    0    0 +0.0000000000e+00 +0.0000000000e+00 +1.7277460601e+02 1.7277460601e+02 0.0000000000e+00 0.0000e+00 1.0000e+00
      -11 -1    0    0    0    0 -0.0000000000e+00 -0.0000000000e+00 -3.4854833757e+01 3.4854833757e+01 0.0000000000e+00 0.0000e+00 -1.0000e+00
       13  1    1    2    0    0 -5.9820917273e+01 -2.4158434198e+01 +1.2665345121e+02 1.4213820313e+02 0.0000000000e+00 0.0000e+00 1.0000e+00
      -13  1    1    2    0    0 +5.9820917273e+01 +2.4158434198e+01 +1.1266321045e+01 6.5491236636e+01 0.0000000000e+00 0.0000e+00 -1.0000e+00
</event>
<event>
 4      1 +1.7491400e+00 3.06699400e+02 7.54677100e-03 9.98105700e-02
       11 -1    0    0    0    0 +0.0000000000e+00 +0.0000000000e+00 +1.7499583688e+02 1.7499583688e+02 0.0000000000e+00 0.0000e+00 1.0000e+00
      -11 -1    0    0    0    0 -0.0000000000e+00 -0.0000000000e+00 -1.3438111232e+02 1.3438111232e+02 0.0000000000e+00 0.0000e+00 -1.0000e+00
       13  1    1    2    0    0 -1.0529846176e+02 +2.6263415042e+01 +1.2959805411e+02 1.6903605724e+02 0.0000000000e+00 0.0000e+00 1.0000e+00
      -13  1    1    2    0    0 +1.0529846176e+02 -2.6263415042e+01 -8.8983329550e+01 1.4034089196e+02 0.0000000000e+00 0.0000e+00 -1.0000e+00
</event>
<event>
 5      1 +1.7491400e+00 8.33917900e+01 7.54677100e-03 1.19612600e-01
       11 -1    0    0    0    0 +0.0000000000e+00 +0.0000000000e+00 +9.9359385111e+00 9.9359385111e+00 0.0000000000e+00 0.0000e+00 -1.0000e+00
      -11 -1    0    0    0    0 -0.0000000000e+00 -0.0000000000e+00 -1.7497568797e+02 1.7497568797e+02 0.0000000000e+00 0.0000e+00 1.0000e+00
       23  2    1    2    0    0 +0.0000000000e+00 +0.0000000000e+00 -1.6503974946e+02 1.8491162648e+02 8.3391790402e+01 0.0000e+00 0.0000e+00
       13  1    3    3    0    0 -3.5305981886e+01 +1.5438581659e+01 -1.1783727737e+02 1.2397776453e+02 0.0000000000e+00 0.0000e+00 1.0000e+00
      -13  1    3    3    0    0 +3.5305981886e+01 -1.5438581659e+01 -4.7202472089e+01 6.0933861948e+01 0.0000000000e+00 0.0000e+00 -1.0000e+00
</event>
<event>
 4      1 +1.7491400e+00 1.45095800e+02 7.54677100e-03 1.10286900e-01
       11 -1    0    0    0    0 +0.0000000000e+00 +0.0000000000e+00 +3.0073161797e+01 3.0073161797e+01 0.0000000000e+00 0.0000e+00 -1.0000e+00
      -11 -1    0    0    0    0 -0.0000000000e+00 -0.0000000000e+00 -1.7501302521e+02 1.7501302521e+02 0.0000000000e+00 0.0000e+00 1.0000e+00
       13  1    1    2    0    0 +6.9703137781e+01 -1.3991935500e+01 -5.2041078436e+01 8.8105479514e+01 0.0000000000e+00 0.0000e+00 -1.0000e+00
      -13  1    1    2    0    0 -6.9703137781e+01 +1.3991935500e+01 -9.2898784980e+01 1.1698070750e+02 0.0000000000e+00 0.0000e+00 1.0000e+00
</event>
<event>
 5      1 +1.7491400e+00 1.26431800e+02 7.54677100e-03 1.12463900e-01
       11 -1    0    0    0    0 +0.0000000000e+00 +0.0000000000e+00 +2.2835803609e+01 2.2835803609e+01 0.0000000000e+00 0.0000e+00 -1.0000e+00
      -11 -1    0    0    0    0 -0.0000000000e+00 -0.0000000000e+00 -1.7499933793e+02 1.7499933793e+02 0.0000000000e+00 0.0000e+00 1.0000e+00
       23  2    1    2    0    0 +0.0000000000e+00 +0.0000000000e+00 -1.5216353432e+02 1.9783514154e+02 1.2643180791e+02 0.0000e+00 0.0000e+00
       13  1    3    3    0    0 +3.6629853792e+01 -3.5325872209e+01 -1.7396322270e+01 5.3780065681e+01 0.0000000000e+00 0.0000e+00 -1.0000e+00
      -13  1    3    3    0    0 -3.6629853792e+01 +3.5325872209e+01 -1.3476721205e+02 1.4405507586e+02 0.0000000000e+00 0.0000e+00 1.0000e+00
</event>
<event>
 4      1 +1.7491400e+00 3.49920700e+02 7.54677100e-03 9.81716700e-02
       11 -1    0    0    0    0 +0.0000000000e+00 +0.0000000000e+00 +1.7499689696e+02 1.7499689696e+02 0.0000000000e+00 0.0000e+00 -1.0000e+00
      -11 -1    0    0    0    0 -0.0000000000e+00 -0.0000000000e+00 -1.7492376931e+02 1.7492376931e+02 0.0000000000e+00 0.0000e+00 1.0000e+00
       13  1    1    2    0    0 -8.4135779457e+01 -1.0234152913e+02 +1.1431035537e+02 1.7498421447e+02 0.0000000000e+00 0.0000e+00 -1.0000e+00
      -13  1    1    2    0    0 +8.4135779457e+01 +1.0234152913e+02 -1.1423722772e+02 1.7493645179e+02 0.0000000000e+00 0.0000e+00 1.0000e+00
</event>
<event>
 4      1 +1.7491400e+00 1.99217700e+02 7.54677100e-03 1.05587500e-01
       11 -1    0    0    0    0 +0.0000000000e+00 +0.0000000000e+00 +1.7387897649e+02 1.7387897649e+02 0.0000000000e+00 0.0000e+00 -1.0000e+00
      -11 -1    0    0    0    0 -0.0000000000e+00 -0.0000000000e+00 -5.7062235663e+01 5.7062235663e+01 0.0000000000e+00 0.0000e+00 1.0000e+00
       13  1    1    2    0    0 +7.5079530200e+01 -6.2087319641e+01 +8.2451140231e+01 1.2763213404e+02 0.0000000000e+00 0.0000e+00 -1.0000e+00
      -13  1    1    2    0    0 -7.5079530200e+01 +6.2087319641e+01 +3.4365600593e+01 1.0330907811e+02 0.0000000000e+00 0.0000e+00 1.0000e+00
</event>
<event>
 4      1 +1.7491400e+00 3.50000000e+02 7.54677100e-03 9.81689000e-02
       11 -1    0    0    0    0 +0.0000000000e+00 +0.0000000000e+00 +1.7499999971e+02 1.7499999971e+02 0.0000000000e+00 0.0000e+00 -1.0000e+00
      -11 -1    0    0    0    0 -0.0000000000e+00 -0.0000000000e+00 -1.7499999971e+02 1.7499999971e+02 0.0000000000e+00 0.0000e+00 1.0000e+00
       13  1    1    2    0    0 -7.5424065099e+01 -1.6910714906e+01 +1.5700394270e+02 1.7499999971e+02 0.0000000000e+00 0.0000e+00 -1.0000e+00
      -13  1    1    2    0    0 +7.5424065099e+01 +1.6910714906e+01 -1.5700394270e+02 1.7499999971e+02 0.0000000000e+00 0.0000e+00 1.0000e+00
</event>
<event>
 5      1 +1.7491400e+00 9.10377100e+01 7.54677100e-03 1.18029400e-01
       11 -1    0    0    0    0 +0.0000000000e+00 +0.0000000000e+00 +1.7499771829e+02 1.7499771829e+02 0.0000000000e+00 0.0000e+00 -1.0000e+00
      -11 -1    0    0    0    0 -0.0000000000e+00 -0.0000000000e+00 -1.1839960139e+01 1.1839960139e+01 0.0000000000e+00 0.0000e+00 1.0000e+00
       23  2    1    2    0    0 +0.0000000000e+00 +0.0000000000e+00 +1.6315775815e+02 1.8683767843e+02 9.1037706671e+01 0.0000e+00 0.0000e+00
       13  1    3    3    0    0 +2.7965147191e+01 -3.4436495495e+01 +1.0251288590e+02 1.1169965736e+02 0.0000000000e+00 0.0000e+00 -1.0000e+00
      -13  1    3    3    0    0 -2.7965147191e+01 +3.4436495495e+01 +6.0644872249e+01 7.5138021065e+01 0.0000000000e+00 0.0000e+00 1.0000e+00
</event>
<event>
 4      1 +1.7491400e+00 3.49846100e+02 7.54677100e-03 9.81742800e-02
       11 -1    0    0    0    0 +0.0000000000e+00 +0.0000000000e+00 +1.7499862517e+02 1.7499862517e+02 0.0000000000e+00 0.0000e+00 1.0000e+00
      -11 -1    0    0    0    0 -0.0000000000e+00 -0.0000000000e+00 -1.7484752899e+02 1.7484752899e+02 0.0000000000e+00 0.0000e+00 -1.0000e+00
       13  1    1    2    0    0 -1.2763410920e+02 -9.6873672422e+01 +7.0240381627e+01 1.7495338080e+02 0.0000000000e+00 0.0000e+00 1.0000e+00
      -13  1    1    2    0    0 +1.2763410920e+02 +9.6873672422e+01 -7.0089285443e+01 1.7489277336e+02 0.0000000000e+00 0.0000e+00 -1.0000e+00
</event>
<event>
 4      1 +1.7491400e+00 9.10345000e+01 7.54677100e-03 1.18030000e-01
       11 -1    0    0    0    0 +0.0000000000e+00 +0.0000000000e+00 +1.1839908639e+01 1.1839908639e+01 0.0000000000e+00 0.0000e+00 -1.0000e+00
      -11 -1    0    0    0    0 -0.0000000000e+00 -0.0000000000e+00 -1.7498613903e+02 1.7498613903e+02 0.0000000000e+00 0.0000e+00 1.0000e+00
       13  1    1    2    0    0 -2.1958707339e+01 +3.7054636475e+01 -5.1370147680e+01 6.7038220330e+01 0.0000000000e+00 0.0000e+00 -1.0000e+00
      -13  1    1    2    0    0 +2.1958707339e+01 -3.7054636475e+01 -1.1177608271e+02 1.1978782734e+02 0.0000000000e+00 0.0000e+00 1.0000e+00
</event>
<event>
 4      1 +1.7491400e+00 3.40371800e+02 7.54677100e-03 9.85110500e-02
       11 -1    0    0    0    0 +0.0000000000e+00 +0.0000000000e+00 +1.7499644747e+02 1.7499644747e+02 0.0000000000e+00 0.0000e+00 -1.0000e+00
      -11 -1    0    0    0    0 -0.0000000000e+00 -0.0000000000e+00 -1.6550757417e+02 1.6550757417e+02 0.0000000000e+00 0.0000e+00 1.0000e+00
       13  1    1    2    0    0 +5.1461240451e+01 -1.3406871533e+02 +9.6106572871e+01 1.7279801228e+02 0.0000000000e+00 0.0000e+00 -1.0000e+00
      -13  1    1    2    0    0 -5.1461240451e+01 +1.3406871533e+02 -8.6617699571e+01 1.6770600936e+02 0.0000000000e+00 0.0000e+00 1.0000e+00
</event>
<event>
 4      1 +1.7491400e+00 3.50000000e+02 7.54677100e-03 9.81689000e-02
       11 -1    0    0    0    0 +0.0000000000e+00 +0.0000000000e+00 +1.7499756183e+02 1.7499756183e+02 0.0000000000e+00 0.0000e+00 1.0000e+00
      -11 -1    0    0    0    0 -0.0000000000e+00 -0.0000000000e+00 -1.7500243811e+02 1.7500243811e+02 0.0000000000e+00 0.0000e+00 -1.0000e+00
       13  1    1    2    0    0 +2.2937014779e+01 -1.6538794486e+02 +5.2397190049e+01 1.7499926993e+02 0.0000000000e+00 0.0000e+00 1.0000e+00
      -13  1    1    2    0    0 -2.2937014779e+01 +1.6538794486e+02 -5.2402066330e+01 1.7500073002e+02 0.0000000000e+00 0.0000e+00 -1.0000e+00
</event>
<event>
 4      1 +1.7491400e+00 9.01860500e+01 7.54677100e-03 1.18196900e-01
       11 -1    0    0    0    0 +0.0000000000e+00 +0.0000000000e+00 +1.1619706350e+01 1.1619706350e+01 0.0000000000e+00 0.0000e+00 -1.0000e+00
      -11 -1    0    0    0    0 -0.0000000000e+00 -0.0000000000e+00 -1.7499418486e+02 1.7499418486e+02 0.0000000000e+00 0.0000e+00 1.0000e+00
       13  1    1    2    0    0 +1.3603501306e+01 -1.8080303634e+01 -9.7668132697e-01 2.2647439893e+01 0.0000000000e+00 0.0000e+00 -1.0000e+00
      -13  1    1    2    0    0 -1.3603501306e+01 +1.8080303634e+01 -1.6239779718e+02 1.6396645131e+02 0.0000000000e+00 0.0000e+00 1.0000e+00
</event>
<event>
 4      1 +1.7491400e+00 3.49985200e+02 7.54677100e-03 9.81694200e-02
       11 -1    0    0    0    0 +0.0000000000e+00 +0.0000000000e+00 +1.7499990282e+02 1.7499990282e+02 0.0000000000e+00 0.0000e+00 1.0000e+00
      -11 -1    0    0    0    0 -0.0000000000e+00 -0.0000000000e+00 -1.7498527480e+02 1.7498527480e+02 0.0000000000e+00 0.0000e+00 -1.0000e+00
       13  1    1    2    0    0 -2.4127137332e+01 -4.6316605515e+01 +1.6702545503e+02 1.7499956952e+02 0.0000000000e+00 0.0000e+00 1.0000e+00
      -13  1    1    2    0    0 +2.4127137332e+01 +4.6316605515e+01 -1.6701082701e+02 1.7498560810e+02 0.0000000000e+00 0.0000e+00 -1.0000e+00
</event>
<event>
 5      1 +1.7491400e+00 9.16439600e+01 7.54677100e-03 1.17911300e-01
       11 -1    0    0    0    0 +0.0000000000e+00 +0.0000000000e+00 +1.1997303576e+01 1.1997303576e+01 0.0000000000e+00 0.0000e+00 -1.0000e+00
      -11 -1    0    0    0    0 -0.0000000000e+00 -0.0000000000e+00 -1.7501047439e+02 1.7501047439e+02 0.0000000000e+00 0.0000e+00 1.0000e+00
       23  2    1    2    0    0 +0.0000000000e+00 +0.0000000000e+00 -1.6301317081e+02 1.8700777796e+02 9.1643958671e+01 0.0000e+00 0.0000e+00
       13  1    3    3    0    0 +2.9918594067e+01 -2.7486554272e+01 -3.8266246947e+01 5.5811634917e+01 0.0000000000e+00 0.0000e+00 -1.0000e+00
      -13  1    3    3    0    0 -2.9918594067e+01 +2.7486554272e+01 -1.2474692386e+02 1.3119614305e+02 0.0000000000e+00 0.0000e+00 1.0000e+00
</event>
<event>
 4      1 +1.7491400e+00 9.06092300e+01 7.54677100e-03 1.18113400e-01
       11 -1    0    0    0    0 +0.0000000000e+00 +0.0000000000e+00 +1.7354383802e+02 1.7354383802e+02 0.0000000000e+00 0.0000e+00 1.0000e+00
      -11 -1    0    0    0    0 -0.0000000000e+00 -0.0000000000e+00 -1.1827029453e+01 1.1827029453e+01 0.0000000000e+00 0.0000e+00 -1.0000e+00
       13  1    1    2    0    0 -3.0864744940e+01 +1.2688317174e+01 +1.8171820371e+01 3.7997906896e+01 0.0000000000e+00 0.0000e+00 -1.0000e+00
      -13  1    1    2    0    0 +3.0864744940e+01 -1.2688317174e+01 +1.4354498819e+02 1.4737296057e+02 0.0000000000e+00 0.0000e+00 1.0000e+00
</event>
<event>
 4      1 +1.7491400e+00 9.05952600e+01 7.54677100e-03 1.18116200e-01
       11 -1    0    0    0    0 +0.0000000000e+00 +0.0000000000e+00 +1.6870841960e+02 1.6870841960e+02 0.0000000000e+00 0.0000e+00 -1.0000e+00
      -11 -1    0    0    0    0 -0.0000000000e+00 -0.0000000000e+00 -1.2162258259e+01 1.2162258259e+01 0.0000000000e+00 0.0000e+00 1.0000e+00
       13  1    1    2    0    0 +3.3971528554e+01 +2.9809302321e+01 +8.4333972915e+01 9.5681127944e+01 0.0000000000e+00 0.0000e+00 -1.0000e+00
      -13  1    1    2    0    0 -3.3971528554e+01 -2.9809302321e+01 +7.2212188426e+01 8.5189549913e+01 0.0000000000e+00 0.0000e+00 1.0000e+00
</event>
<event>
 4      1 +1.7491400e+00 2.24121000e+02 7.54677100e-03 1.03943800e-01
       11 -1    0    0    0    0 +0.0000000000e+00 +0.0000000000e+00 +7.1760844561e+01 7.1760844561e+01 0.0000000000e+00 0.0000e+00 1.0000e+00
      -11 -1    0    0    0    0 -0.0000000000e+00 -0.0000000000e+00 -1.7499179974e+02 1.7499179974e+02 0.0000000000e+00 0.0000e+00 -1.0000e+00
       13  1    1    2    0    0 -1.9276099604e+01 -7.6374046633e+01 +3.6138841814e+01 8.6663596179e+01 0.0000000000e+00 0.0000e+00 1.0000e+00
      -13  1    1    2    0    0 +1.9276099604e+01 +7.6374046633e+01 -1.3936979699e+02 1.6008904812e+02 0.0000000000e+00 0.0000e+00 -1.0000e+00
</event>
<event>
 4      1 +1.7491400e+00 2.00577300e+02 7.54677100e-03 1.05491200e-01
       11 -1    0    0    0    0 +0.0000000000e+00 +0.0000000000e+00 +1.7275752872e+02 1.7275752872e+02 0.0000000000e+00 0.0000e+00 1.0000e+00
      -11 -1    0    0    0    0 -0.0000000000e+00 -0.0000000000e+00 -5.8219248056e+01 5.8219248056e+01 0.0000000000e+00 0.0000e+00 -1.0000e+00
       13  1    1    2    0    0 +9.5106084296e+01 -2.4326884415e+01 +3.3645348770e+01 1.0377366751e+02 0.0000000000e+00 0.0000e+00 1.0000e+00
      -13  1    1    2    0    0 -9.5106084296e+01 +2.4326884415e+01 +8.0892931893e+01 1.2720310926e+02 0.0000000000e+00 0.0000e+00 -1.0000e+00
</event>
<event>
 4      1 +1.7491400e+00 3.49910000e+02 7.54677100e-03 9.81720500e-02
       11 -1    0    0    0    0 +0.0000000000e+00 +0.0000000000e+00 +1.7499645231e+02 1.7499645231e+02 0.0000000000e+00 0.0000e+00 1.0000e+00
      -11 -1    0    0    0    0 -0.0000000000e+00 -0.0000000000e+00 -1.7491357798e+02 1.7491357798e+02 0.0000000000e+00 0.0000e+00 -1.0000e+00
       13  1    1    2    0    0 -6.5125819798e+01 -1.2517285522e+02 +1.0348050193e+02 1.7497951414e+02 0.0000000000e+00 0.0000e+00 1.0000e+00
      -13  1    1    2    0    0 +6.5125819798e+01 +1.2517285522e+02 -1.0339762760e+02 1.7493051616e+02 0.0000000000e+00 0.0000e+00 -1.0000e+00
</event>
<event>
 5      1 +1.7491400e+00 9.13187300e+01 7.54677100e-03 1.17974500e-01
       11 -1    0    0    0    0 +0.0000000000e+00 +0.0000000000e+00 +1.7498423025e+02 1.7498423025e+02 0.0000000000e+00 0.0000e+00 1.0000e+00
      -11 -1    0    0    0    0 -0.0000000000e+00 -0.0000000000e+00 -1.1914087919e+01 1.1914087919e+01 0.0000000000e+00 0.0000e+00 -1.0000e+00
       23  2    1    2    0    0 +0.0000000000e+00 +0.0000000000e+00 +1.6307014233e+02 1.8689831817e+02 9.1318727622e+01 0.0000e+00 0.0000e+00
       13  1    3    3    0    0 +2.4476572391e+01 -1.0943650504e+01 +5.8941498624e+00 2.7451904942e+01 0.0000000000e+00 0.0000e+00 -1.0000e+00
      -13  1    3    3    0    0 -2.4476572391e+01 +1.0943650504e+01 +1.5717599247e+02 1.5944641323e+02 0.0000000000e+00 0.0000e+00 1.0000e+00
</event>
<event>
 4      1 +1.7491400e+00 9.23930300e+01 7.54677100e-03 1.17766900e-01
       11 -1    0    0    0    0 +0.0000000000e+00 +0.0000000000e+00 +1.7499900561e+02 1.7499900561e+02 0.0000000000e+00 0.0000e+00 -1.0000e+00
      -11 -1    0    0    0    0 -0.0000000000e+00 -0.0000000000e+00 -1.2195028549e+01 1.2195028549e+01 0.0000000000e+00 0.0000e+00 1.0000e+00
       13  1    1    2    0    0 +2.6423422916e+01 +4.9735338196e+00 +1.5751251286e+02 1.5979087904e+02 0.0000000000e+00 0.0000e+00 -1.0000e+00
      -13  1    1    2    0    0 -2.6423422916e+01 -4.9735338196e+00 +5.2914642074e+00 2.7403155123e+01 0.0000000000e+00 0.0000e+00 1.0000e+00
</event>
<event>
 4      1 +1.7491400e+00 2.99197000e+02 7.54677100e-03 1.00124700e-01
       11 -1    0    0    0    0 +0.0000000000e+00 +0.0000000000e+00 +1.2787887642e+02 1.2787887642e+02 0.0000000000e+00 0.0000e+00 -1.0000e+00
      -11 -1    0    0    0    0 -0.0000000000e+00 -0.0000000000e+00 -1.7500706524e+02 1.7500706524e+02 0.0000000000e+00 0.0000e+00 1.0000e+00
       13  1    1    2    0    0 +1.0440009994e+02 -8.7801221334e+01 +3.8603752289e+01 1.4176983116e+02 0.0000000000e+00 0.0000e+00 -1.0000e+00
      -13  1    1    2    0    0 -1.0440009994e+02 +8.7801221334e+01 -8.5731941113e+01 1.6111611050e+02 0.0000000000e+00 0.0000e+00 1.0000e+00
</event>
<event>
 4      1 +1.7491400e+00 3.44644400e+02 7.54677100e-03 9.83577400e-02
       11 -1    0    0    0    0 +0.0000000000e+00 +0.0000000000e+00 +1.7499551549e+02 1.7499551549e+02 0.0000000000e+00 0.0000e+00 -1.0000e+00
      -11 -1    0    0    0    0 -0.0000000000e+00 -0.0000000000e+00 -1.6968971100e+02 1.6968971100e+02 0.0000000000e+00 0.0000e+00 1.0000e+00
       13  1    1    2    0    0 +9.9445422599e+01 +1.1071757967e+02 +8.9537611219e+01 1.7368004591e+02 0.0000000000e+00 0.0000e+00 -1.0000e+00
      -13  1    1    2    0    0 -9.9445422599e+01 -1.1071757967e+02 -8.4231806729e+01 1.7100518059e+02 0.0000000000e+00 0.0000e+00 1.0000e+00
</event>
<event>
 5      1 +1.7491400e+00 9.22887100e+01 7.54677100e-03 1.17786900e-01
       11 -1    0    0    0    0 +0.0000000000e+00 +0.0000000000e+00 +1.2170607068e+01 1.2170607068e+01 0.0000000000e+00 0.0000e+00 -1.0000e+00
      -11 -1    0    0    0    0 -0.0000000000e+00 -0.0000000000e+00 -1.7495440477e+02 1.7495440477e+02 0.0000000000e+00 0.0000e+00 1.0000e+00
       23  2    1    2    0    0 +0.0000000000e+00 +0.0000000000e+00 -1.6278379770e+02 1.8712501184e+02 9.2288706031e+01 0.0000e+00 0.0000e+00
       13  1    3    3    0    0 -4.1968301031e+01 +9.6372258269e+00 -4.7762566884e+01 6.4307676123e+01 0.0000000000e+00 0.0000e+00 -1.0000e+00
      -13  1    3    3    0    0 +4.1968301031e+01 -9.6372258269e+00 -1.1502123082e+02 1.2281733571e+02 0.0000000000e+00 0.0000e+00 1.0000e+00
</event>
<event>
 4      1 +1.7491400e+00 3.39188400e+02 7.54677100e-03 9.85539500e-02
       11 -1    0    0    0    0 +0.0000000000e+00 +0.0000000000e+00 +1.7381333349e+02 1.7381333349e+02 0.0000000000e+00 0.0000e+00 -1.0000e+00
      -11 -1    0    0    0    0 -0.0000000000e+00 -0.0000000000e+00 -1.6547743854e+02 1.6547743854e+02 0.0000000000e+00 0.0000e+00 1.0000e+00
       13  1    1    2    0    0 +1.0099287734e+02 -5.1155848268e+01 -1.2214647771e+02 1.6654201903e+02 0.0000000000e+00 0.0000e+00 1.0000e+00
      -13  1    1    2    0    0 -1.0099287734e+02 +5.1155848268e+01 +1.3048237267e+02 1.7274875300e+02 0.0000000000e+00 0.0000e+00 -1.0000e+00
</event>
<event>
 4      1 +1.7491400e+00 2.33486500e+02 7.54677100e-03 1.03384700e-01
       11 -1    0    0    0    0 +0.0000000000e+00 +0.0000000000e+00 +1.7499702773e+02 1.7499702773e+02 0.0000000000e+00 0.0000e+00 -1.0000e+00
      -11 -1    0    0    0    0 -0.0000000000e+00 -0.0000000000e+00 -7.7881272895e+01 7.7881272895e+01 0.0000000000e+00 0.0000e+00 1.0000e+00
       13  1    1    2    0    0 -8.8549113239e+01 +5.8520333052e+01 +1.0121047937e+02 1.4665993308e+02 0.0000000000e+00 0.0000e+00 -1.0000e+00
      -13  1    1    2    0    0 +8.8549113239e+01 -5.8520333052e+01 -4.0947245334e+00 1.0621836755e+02 0.0000000000e+00 0.0000e+00 1.0000e+00
</event>
<event>
 5      1 +1.7491400e+00 9.07412400e+01 7.54677100e-03 1.18087500e-01
       11 -1    0    0    0    0 +0.0000000000e+00 +0.0000000000e+00 +1.1761265304e+01 1.1761265304e+01 0.0000000000e+00 0.0000e+00 -1.0000e+00
      -11 -1    0    0    0    0 -0.0000000000e+00 -0.0000000000e+00 -1.7502310374e+02 1.7502310374e+02 0.0000000000e+00 0.0000e+00 1.0000e+00
       23  2    1    2    0    0 +0.0000000000e+00 +0.0000000000e+00 -1.6326183844e+02 1.8678436904e+02 9.0741239962e+01 0.0000e+00 0.0000e+00
       13  1    3    3    0    0 -6.4003325281e+00 +3.9561093133e+01 -3.7846403971e+01 5.5121634953e+01 0.0000000000e+00 0.0000e+00 -1.0000e+00
      -13  1    3    3    0    0 +6.4003325281e+00 -3.9561093133e+01 -1.2541543446e+02 1.3166273409e+02 0.0000000000e+00 0.0000e+00 1.0000e+00
</event>
<event>
 4      1 +1.7491400e+00 9.26758300e+01 7.54677100e-03 1.17712700e-01
       11 -1    0    0    0    0 +0.0000000000e+00 +0.0000000000e+00 +1.7410386801e+02 1.7410386801e+02 0.0000000000e+00 0.0000e+00 1.0000e+00
      -11 -1    0    0    0    0 -0.0000000000e+00 -0.0000000000e+00 -1.2332881853e+01 1.2332881853e+01 0.0000000000e+00 0.0000e+00 -1.0000e+00
       13  1    1    2    0    0 -3.5033029214e+01 +5.7646096348e+00 +1.4078775770e+02 1.4519551156e+02 0.0000000000e+00 0.0000e+00 1.0000e+00
      -13  1    1    2    0    0 +3.5033029214e+01 -5.7646096348e+00 +2.0983228461e+01 4.1241238304e+01 0.0000000000e+00 0.0000e+00 -1.0000e+00
</event>
<event>
 4      1 +1.7491400e+00 9.34062800e+01 7.54677100e-03 1.17573900e-01
       11 -1    0    0    0    0 +0.0000000000e+00 +0.0000000000e+00 +1.2463174998e+01 1.2463174998e+01 0.0000000000e+00 0.0000e+00 -1.0000e+00
      -11 -1    0    0    0    0 -0.0000000000e+00 -0.0000000000e+00 -1.7501025643e+02 1.7501025643e+02 0.0000000000e+00 0.0000e+00 1.0000e+00
       13  1    1    2    0    0 -1.4755135000e+01 +3.6928118694e+01 -3.2119311493e+01 5.1118002014e+01 0.0000000000e+00 0.0000e+00 -1.0000e+00
      -13  1    1    2    0    0 +1.4755135000e+01 -3.6928118694e+01 -1.3042776994e+02 1.3635542941e+02 0.0000000000e+00 0.0000e+00 1.0000e+00
</event>
<event>
 5      1 +1.7491400e+00 9.09176100e+01 7.54677100e-03 1.18052900e-01
       11 -1    0    0    0    0 +0.0000000000e+00 +0.0000000000e+00 +1.7499867412e+02 1.7499867412e+02 0.0000000000e+00 0.0000e+00 -1.0000e+00
      -11 -1    0    0    0    0 -0.0000000000e+00 -0.0000000000e+00 -1.1808677393e+01 1.1808677393e+01 0.0000000000e+00 0.0000e+00 1.0000e+00
       23  2    1    2    0    0 +0.0000000000e+00 +0.0000000000e+00 +1.6318999672e+02 1.8680735151e+02 9.0917608564e+01 0.0000e+00 0.0000e+00
       13  1    3    3    0    0 -1.1883701112e+00 -3.1737229035e+01 +1.4767417877e+01 3.5024856333e+01 0.0000000000e+00 0.0000e+00 1.0000e+00
      -13  1    3    3    0    0 +1.1883701112e+00 +3.1737229035e+01 +1.4842257885e+02 1.5178249518e+02 0.0000000000e+00 0.0000e+00 -1.0000e+00
</event>
<event>
 4      1 +1.7491400e+00 2.98556800e+02 7.54677100e-03 1.00151900e-01
       11 -1    0    0    0    0 +0.0000000000e+00 +0.0000000000e+00 +1.4192354678e+02 1.4192354678e+02 0.0000000000e+00 0.0000e+00 -1.0000e+00
      -11 -1    0    0    0    0 -0.0000000000e+00 -0.0000000000e+00 -1.5701436236e+02 1.5701436236e+02 0.0000000000e+00 0.0000e+00 1.0000e+00
       13  1    1    2    0    0 -2.3321602586e+01 +1.4566481049e+02 +1.5328910482e+01 1.4831422609e+02 0.0000000000e+00 0.0000e+00 -1.0000e+00
      -13  1    1    2    0    0 +2.3321602586e+01 -1.4566481049e+02 -3.0419726065e+01 1.5062368305e+02 0.0000000000e+00 0.0000e+00 1.0000e+00
</event>
<event>
 4      1 +1.7491400e+00 9.17777000e+01 7.54677100e-03 1.17885400e-01
       11 -1    0    0    0    0 +0.0000000000e+00 +0.0000000000e+00 +1.2035051509e+01 1.2035051509e+01 0.0000000000e+00 0.0000e+00 -1.0000e+00
      -11 -1    0    0    0    0 -0.0000000000e+00 -0.0000000000e+00 -1.7497113348e+02 1.7497113348e+02 0.0000000000e+00 0.0000e+00 1.0000e+00
       13  1    1    2    0    0 +3.3518040702e+01 -3.0856683199e+01 -7.0271872192e+01 8.3748014735e+01 0.0000000000e+00 0.0000e+00 -1.0000e+00
      -13  1    1    2    0    0 -3.3518040702e+01 +3.0856683199e+01 -9.2664209780e+01 1.0325817026e+02 0.0000000000e+00 0.0000e+00 1.0000e+00
</event>
<event>
 4      1 +1.7491400e+00 4.93988600e+01 7.54677100e-03 1.30048600e-01
       11 -1    0    0    0    0 +0.0000000000e+00 +0.0000000000e+00 +1.7489912498e+02 1.7489912498e+02 0.0000000000e+00 0.0000e+00 -1.0000e+00
      -11 -1    0    0    0    0 -0.0000000000e+00 -0.0000000000e+00 -3.4880789912e+00 3.4880789912e+00 0.0000000000e+00 0.0000e+00 1.0000e+00
       13  1    1    2    0    0 +1.9783249876e+01 +1.2534961026e+01 +5.7372356310e+01 6.1968455622e+01 0.0000000000e+00 0.0000e+00 -1.0000e+00
      -13  1    1    2    0    0 -1.9783249876e+01 -1.2534961026e+01 +1.1403868968e+02 1.1641874835e+02 0.0000000000e+00 0.0000e+00 1.0000e+00
</event>
<event>
 5      1 +1.7491400e+00 7.17004000e+01 7.54677100e-03 1.22443100e-01
       11 -1    0    0    0    0 +0.0000000000e+00 +0.0000000000e+00 +7.3440763188e+00 7.3440763188e+00 0.0000000000e+00 0.0000e+00 1.0000e+00
      -11 -1    0    0    0    0 -0.0000000000e+00 -0.0000000000e+00 -1.7500318532e+02 1.7500318532e+02 0.0000000000e+00 0.0000e+00 -1.0000e+00
       23  2    1    2    0    0 +0.0000000000e+00 +0.0000000000e+00 -1.6765910900e+02 1.8234726163e+02 7.1700397460e+01 0.0000e+00 0.0000e+00
       13  1    3    3    0    0 -2.4522891317e+01 -2.1857664524e+01 -1.2034058648e+02 1.2474368301e+02 0.0000000000e+00 0.0000e+00 -1.0000e+00
      -13  1    3    3    0    0 +2.4522891317e+01 +2.1857664524e+01 -4.7318522520e+01 5.7603578625e+01 0.0000000000e+00 0.0000e+00 1.0000e+00
</event>
<event>
 4      1 +1.7491400e+00 3.49999000e+02 7.54677100e-03 9.81689400e-02
       11 -1    0    0    0    0 +0.0000000000e+00 +0.0000000000e+00 +1.7499948874e+02 1.7499948874e+02 0.0000000000e+00 0.0000e+00 -1.0000e+00
      -11 -1    0    0    0    0 -0.0000000000e+00 -0.0000000000e+00 -1.7499948874e+02 1.7499948874e+02 0.0000000000e+00 0.0000e+00 1.0000e+00
       13  1    1    2    0    0 -1.4457135587e+02 +1.4002805627e+01 +9.7610786069e+01 1.7499948874e+02 0.0000000000e+00 0.0000e+00 -1.0000e+00
      -13  1    1    2    0    0 +1.4457135587e+02 -1.4002805627e+01 -9.7610786069e+01 1.7499948874e+02 0.0000000000e+00 0.0000e+00 1.0000e+00
</event>
<event>
 4      1 +1.7491400e+00 3.49937600e+02 7.54677100e-03 9.81710800e-02
       11 -1    0    0    0    0 +0.0000000000e+00 +0.0000000000e+00 +1.7493712843e+02 1.7493712843e+02 0.0000000000e+00 0.0000e+00 -1.0000e+00
      -11 -1    0    0    0    0 -0.0000000000e+00 -0.0000000000e+00 -1.7500050791e+02 1.7500050791e+02 0.0000000000e+00 0.0000e+00 1.0000e+00
       13  1    1    2    0    0 +1.7467370669e+02 -9.1952895401e+00 +4.2844623311e+00 1.7496803644e+02 0.0000000000e+00 0.0000e+00 -1.0000e+00
      -13  1    1    2    0    0 -1.7467370669e+02 +9.1952895401e+00 -4.3478418157e+00 1.7496959990e+02 0.0000000000e+00 0.0000e+00 1.0000e+00
</event>
<event>
 5      1 +1.7491400e+00 1.02321800e+02 7.54677100e-03 1.15985900e-01
       11 -1    0    0    0    0 +0.0000000000e+00 +0.0000000000e+00 +1.7499839127e+02 1.7499839127e+02 0.0000000000e+00 0.0000e+00 1.0000e+00
      -11 -1    0    0    0    0 -0.0000000000e+00 -0.0000000000e+00 -1.4956932511e+01 1.4956932511e+01 0.0000000000e+00 0.0000e+00 -1.0000e+00
       23  2    1    2    0    0 +0.0000000000e+00 +0.0000000000e+00 +1.6004145876e+02 1.8995532378e+02 1.0232182813e+02 0.0000e+00 0.0000e+00
       13  1    3    3    0    0 -4.1058646075e+01 -6.0036454912e+00 +1.3557738415e+02 1.4178534223e+02 0.0000000000e+00 0.0000e+00 1.0000e+00
      -13  1    3    3    0    0 +4.1058646075e+01 +6.0036454912e+00 +2.4464074608e+01 4.8169981556e+01 0.0000000000e+00 0.0000e+00 -1.0000e+00
</event>
<event>
 4      1 +1.7491400e+00 3.50000000e+02 7.54677100e-03 9.81689000e-02
       11 -1    0    0    0    0 +0.0000000000e+00 +0.0000000000e+00 +1.7499754599e+02 1.7499754599e+02 0.0000000000e+00 0.0000e+00 -1.0000e+00
      -11 -1    0    0    0    0 -0.0000000000e+00 -0.0000000000e+00 -1.7500242227e+02 1.7500242227e+02 0.0000000000e+00 0.0000e+00 1.0000e+00
       13  1    1    2    0    0 -3.9572211526e+01 +1.4006603855e+02 +9.7159999876e+01 1.7499863044e+02 0.0000000000e+00 0.0000e+00 -1.0000e+00
      -13  1    1    2    0    0 +3.9572211526e+01 -1.4006603855e+02 -9.7164876157e+01 1.7500133782e+02 0.0000000000e+00 0.0000e+00 1.0000e+00
</event>
</LesHouchesEvents>
